ITEM: TIMESTEP
0
ITEM: NUMBER OF ATOMS
3105
ITEM: BOX BOUNDS pp pp pp
-2.5000000000000000e+01 2.5000000000000000e+01
-2.5000000000000000e+01 2.5000000000000000e+01
0.0000000000000000e+00 5.5640000000000001e+00
ITEM: ATOMS id element x y z inside
1 Si -4.1173 2.8662 4.6368 2
2 O -4.0743 1.2332 4.6368 2
3 O -4.8543 3.3782 3.2468 2
4 Si -5.0153 -0.1017 4.6368 2
5 O -4.0213 -1.3978 4.6368 2
6 O -5.9123 -0.1197 3.2468 2
7 Si -3.9983 -3.0307 4.6368 2
8 O -2.4313 -3.4928 4.6368 2
9 O -4.7123 -3.5718 3.2458 2
10 Si -1.4523 -4.7998 4.6368 2
11 O 0.0877 -4.2547 4.6368 2
12 O -1.7123 -5.6597 3.2468 2
13 Si 1.6477 -4.7387 4.6368 2
14 O 2.5717 -3.3918 4.6368 2
15 O 1.9407 -5.5857 3.2448 2
16 Si 4.1187 -2.8668 4.6368 2
17 O 4.0767 -1.2337 4.6368 2
18 O 4.8547 -3.3788 3.2448 2
19 Si 5.0177 0.1013 4.6368 2
20 O 4.0227 1.3973 4.6368 2
21 O 5.9127 0.1202 3.2438 2
22 Si 3.9997 3.0303 4.6368 2
23 O 2.4337 3.4943 4.6368 2
24 O 4.7127 3.5713 3.2438 2
25 Si 1.4537 4.8012 4.6368 2
26 O -0.0863 4.2553 4.6368 2
27 O 1.7127 5.6593 3.2448 2
28 Si -1.6463 4.7382 4.6368 2
29 O -2.5703 3.3912 4.6368 2
30 O -1.9413 5.5862 3.2458 2
31 Si -4.1193 2.8662 1.8548 2
32 O -4.0743 1.2332 1.8548 2
33 O -4.8543 3.3792 0.4638 2
34 Si -5.0163 -0.1008 1.8548 2
35 O -4.0203 -1.3958 1.8548 2
36 O -5.9133 -0.1197 0.4638 2
37 Si -3.9973 -3.0297 1.8548 2
38 O -2.4313 -3.4928 1.8548 2
39 O -4.7133 -3.5728 0.4648 2
40 Si -1.4533 -4.8018 1.8548 2
41 O 0.0857 -4.2557 1.8548 2
42 O -1.7133 -5.6597 0.4628 2
43 Si 1.6457 -4.7378 1.8548 2
44 O 2.5717 -3.3927 1.8538 2
45 O 1.9417 -5.5857 0.4638 2
46 Si 4.1177 -2.8657 1.8548 2
47 O 4.0727 -1.2337 1.8538 2
48 O 4.8547 -3.3788 0.4638 2
49 Si 5.0147 0.1013 1.8538 2
50 O 4.0177 1.3953 1.8538 2
51 O 5.9137 0.1202 0.4638 2
52 Si 3.9957 3.0293 1.8548 2
53 O 2.4297 3.4912 1.8538 2
54 O 4.7127 3.5722 0.4648 2
55 Si 1.4527 4.8003 1.8548 2
56 O -0.0873 4.2553 1.8548 2
57 O 1.7127 5.6602 0.4638 2
58 Si -1.6473 4.7393 1.8548 2
59 O -2.5733 3.3942 1.8548 2
60 O -1.9413 5.5862 0.4628 2
64 Ne 1.48829 0.840813 1.19511 1
71 Ne -0.642588 0.0221798 1.52695 1
72 Ne 0.246689 -1.09971 2.49715 1
81 Ne 1.46814 0.682973 4.27504 1
82 Ne -0.215479 0.0472987 5.06123 1
86 Ne -1.10447 -1.1716 3.52398 1
90 Ne 0.835839 0.747835 0.979847 1
91 Ne 1.86999 0.90954 3.59044 1
96 Ne 0.703322 -1.6721 1.69292 1
97 Ne 1.91022 0.223263 3.69893 1
98 Ne -1.09285 -0.404595 0.292645 1
100 Ne 0.53974 -0.588186 2.74813 1
101 Ne 1.74266 -0.769566 0.542414 1
102 Ne -1.66041 0.720294 4.93051 1
108 Ne -0.800263 -0.427994 2.40185 1
113 Ne 0.0388732 -1.85734 5.01874 1
118 Ne 0.796787 -0.407148 0.516297 1
119 Ne 0.735947 -0.544362 4.41305 1
120 Ne -0.696586 -0.316637 2.07016 1
122 Ne 0.729092 -0.557565 5.41832 1
125 Ne 0.720131 0.0436063 1.61598 1
129 Ne 1.08078 -1.00473 0.840775 1
134 Ne -0.887161 0.689326 3.31814 1
135 Ne 1.30654 -1.05623 5.20436 1
136 Ne 1.57993 0.228228 1.40772 1
141 Ne 1.34817 0.310965 2.16077 1
142 Ne -1.85328 -0.95871 3.21237 1
147 Ne 0.121639 -0.409856 4.2852 1
155 Ne -0.13058 1.33763 5.22722 1
158 Ne 0.313487 -1.62592 0.59207 1
159 Ne -1.80264 0.647773 3.33744 1
165 Ne -0.915393 1.39641 0.837475 1
167 Ne 1.71138 -0.763631 5.29013 1
168 Ne -0.544173 -1.9194 0.185812 1
169 Ne 0.292657 1.09388 5.25561 1
170 Ne 1.40899 0.0544631 3.52464 1
174 Ne -0.213361 -0.361229 1.56479 1
176 Ne -0.544009 0.84039 1.26919 1
179 Ne 1.29084 1.53368 3.20293 1
181 Ne -0.133695 -0.619164 1.01305 1
185 Ne 0.645071 -1.49624 4.60104 1
193 Ne 0.884693 1.03075 3.31759 1
194 Ne 1.09677 1.34476 3.26705 1
198 Ne -0.619093 -1.09824 4.85 1
203 Ne -0.363781 -1.26298 1.73559 1
206 Ne -0.257893 -0.00253118 3.29086 1
207 Ne 0.327267 -0.418872 4.03279 1
211 Ne 0.709092 1.70657 0.851489 1
212 Ne 1.8125 -0.494945 0.814046 1
215 Ne -0.777941 0.352014 1.15403 1
217 Ne -1.73029 -0.10509 1.04037 1
218 Ne -0.631557 -1.77287 0.485508 1
219 Ne -1.5058 -0.0510745 1.53879 1
221 Ne -0.126451 -1.25653 2.08894 1
232 Ne -1.9226 0.422387 2.67719 1
235 Ne -0.826753 0.754478 3.79115 1
238 Ne 1.21586 1.44265 0.446336 1
239 Ne 0.498656 0.105041 3.88341 1
240 Ne -1.58897 -1.02149 0.164184 1
249 Ne 0.90898 -1.16974 5.36551 1
250 Ne 0.115745 1.32089 4.83764 1
251 Ne -0.578675 1.40562 3.56081 1
258 Ne -0.963939 -0.919564 5.32089 1
260 Ne 0.0189643 1.9323 0.401837 1
267 Ne -1.68277 -0.664178 0.581757 1
271 Ne -0.890108 1.56152 3.12738 1
272 Ne -0.000816379 0.679119 4.29566 1
273 Ne -0.742905 -1.2038 2.61825 1
274 Ne 1.03365 -1.12039 0.989639 1
278 Ne 0.760726 -1.68515 4.66629 1
282 Ne 1.02249 -1.35247 2.36275 1
286 Ne 1.86183 0.585033 0.813899 1
295 Ne -0.11008 0.293801 1.7827 1
302 Ne 1.20245 -0.877601 5.06673 1
303 Ne -1.06282 0.38037 2.21863 1
307 Ne -1.02777 -0.956578 3.08622 1
310 Ne -1.48045 1.19296 1.34732 1
312 Ne -1.41119 -0.99512 3.25867 1
314 Ne -1.58897 -1.07519 3.75011 1
315 Ne -0.577 0.756429 1.31239 1
319 Ne 0.405274 0.234521 5.2498 1
323 Ne -0.712919 -1.23529 5.37321 1
325 Ne -0.0514045 0.0441641 3.29707 1
326 Ne -1.29078 -0.508788 4.63836 1
329 Ne 1.05343 0.263862 2.41998 1
336 Ne 0.32594 -1.12981 0.996594 1
338 Ne -0.395396 0.180446 3.98602 1
341 Ne -2.04728 0.0857028 3.09604 1
342 Ne -1.16904 0.688482 3.49025 1
346 Ne 0.824309 1.3543 4.77898 1
350 Ne 0.719697 -0.0444027 4.73277 1
351 Ne -1.14168 -0.186902 1.19153 1
353 Ne -0.66402 -0.189615 4.90392 1
354 Ne -0.814365 0.171995 5.50431 1
356 Ne 1.97277 0.374865 3.05651 1
357 Ne 0.45619 -0.806491 5.02937 1
359 Ne 1.33959 0.0526225 1.87445 1
377 Ne -1.55258 -1.41945 0.359172 1
381 Ne -1.0102 -0.841789 2.82594 1
384 Ne -2.13084 -0.149282 0.173914 1
390 Ne 1.55887 -0.842066 4.78247 1
392 Ne 1.56409 0.408899 5.53709 1
393 Ne -1.34217 -0.318537 5.21861 1
394 Ne 0.319091 -1.03612 4.93511 1
395 Ne 1.27751 0.669849 0.732973 1
402 Ne 1.14304 1.42212 0.885326 1
403 Ne 0.248107 1.13673 5.48328 1
404 Ne -0.748879 -0.80234 3.30188 1
405 Ne 1.86862 -0.587252 3.74802 1
406 Ne 0.802341 -0.650815 1.65768 1
410 Ne 0.732908 -1.22072 5.39098 1
411 Ne 1.0355 1.20406 0.858976 1
416 Ne -0.455054 -1.69558 2.71874 1
419 Ne 0.0873386 -0.899677 2.10224 1
421 Ne -1.00626 0.620292 2.50749 1
422 Ne 0.697512 1.4785 4.23531 1
425 Ne -1.39405 -0.993472 2.41037 1
426 Ne -1.64971 0.575744 2.57602 1
427 Ne -1.1824 -0.615328 0.7585 1
428 Ne -1.82281 0.0693377 1.97702 1
431 Ne 1.63607 0.559277 0.131975 1
434 Ne -0.546573 0.944019 0.710721 1
436 Ne 0.514427 -1.2215 0.750434 1
440 Ne -0.938064 1.95523 3.35669 1
441 Ne -1.01397 0.683969 0.518963 1
442 Ne 0.155018 -1.01484 3.11144 1
444 Ne -0.885991 -1.24948 4.67728 1
447 Ne -0.653808 -1.34321 0.184856 1
449 Ne 1.19914 1.19874 4.05913 1
455 Ne 0.21593 0.334969 2.33977 1
461 Ne -0.659382 -1.43364 5.23317 1
464 Ne 0.0403213 0.879714 0.113502 1
466 Ne -0.730064 -1.38243 2.71302 1
468 Ne 1.46418 -1.13062 1.62942 1
474 Ne 0.382951 -0.545487 0.93362 1
477 Ne 0.603578 -0.467098 0.834166 1
481 Ne -1.64153 1.24669 3.65176 1
485 Ne -0.538946 -0.464223 4.79597 1
491 Ne -1.5007 -0.627873 4.74326 1
497 Ne -0.283534 1.04012 2.51218 1
499 Ne -0.0172173 -1.37182 1.36527 1
504 Ne 0.0701488 -1.80957 2.2491 1
507 Ne -0.192422 -1.23968 3.91358 1
509 Ne 0.480617 -0.665031 0.634245 1
516 Ne 0.268265 1.5304 5.10547 1
520 Ne -1.09282 0.227087 3.28944 1
523 Ne 0.881189 -0.251298 4.97717 1
526 Ne -0.0450003 -0.320168 0.728398 1
527 Ne 0.894148 1.54248 0.716437 1
528 Ne -0.895709 1.02542 0.762407 1
532 Ne -0.149957 -0.32815 2.76762 1
535 Ne 0.663629 0.810656 4.55577 1
539 Ne -0.798898 0.914626 2.87084 1
541 Ne -0.475412 1.74909 2.26291 1
544 Ne -0.340149 -0.0878788 2.02557 1
546 Ne -0.218388 1.5563 2.13602 1
547 Ne 0.107154 0.931481 4.79115 1
550 Ne -0.50209 -0.231132 5.37762 1
552 Ne 0.773623 -0.916262 3.69226 1
555 Ne -0.181092 1.98711 0.179945 1
557 Ne 0.452027 1.20969 1.58492 1
565 Ne -0.703378 0.724579 4.93988 1
567 Ne -0.929556 0.950209 3.21342 1
568 Ne 1.62996 -1.30464 0.358465 1
576 Ne -0.281988 -1.76626 2.88103 1
579 Ne 1.29253 1.06926 2.69275 1
582 Ne -0.899125 1.21139 1.43414 1
586 Ne -0.547411 1.26861 4.61693 1
592 Ne -0.404447 -0.743886 0.233755 1
593 Ne 0.38636 -0.842639 2.91004 1
596 Ne -1.73838 0.7258 4.11053 1
598 Ne 1.42819 -1.12678 1.44842 1
599 Ne 1.15622 -0.24771 1.49931 1
600 Ne 1.75428 0.235909 1.02738 1
613 Ne 1.89045 -0.789075 3.09986 1
614 Ne -1.0028 1.15751 2.7036 1
618 Ne 0.52346 -0.613013 3.0043 1
621 Ne -0.936017 0.369159 1.27819 1
626 Ne -1.0551 0.540063 0.95663 1
627 Ne 0.591679 1.15092 0.499414 1
632 Ne -0.982234 1.19227 3.51444 1
633 Ne -1.27411 -1.2124 2.09437 1
637 Ne 0.841036 1.69654 4.13424 1
638 Ne 1.76583 -0.0756803 4.66869 1
641 Ne 0.265545 -0.987876 2.75681 1
645 Ne -0.372217 0.9517 0.330389 1
649 Ne 1.78347 1.107 3.14328 1
651 Ne -0.0989651 -0.105798 2.97679 1
652 Ne 0.919412 1.35935 3.5431 1
655 Ne 0.588088 -1.60418 4.77786 1
661 Ne 0.464396 0.311366 1.79968 1
665 Ne 0.365968 2.01673 0.879569 1
669 Ne -0.16238 -0.323648 0.0357287 1
674 Ne 1.71318 0.613296 0.664269 1
675 Ne 1.16395 0.150456 3.95361 1
681 Ne -0.424054 0.922873 4.26727 1
697 Ne 0.907672 -1.56484 3.82771 1
703 Ne 0.177002 1.27986 0.516798 1
705 Ne 0.0197563 0.844951 4.86666 1
707 Ne -1.31911 -1.5197 0.35449 1
710 Ne 1.9338 0.560614 0.80465 1
716 Ne -0.210853 -1.41238 3.19206 1
718 Ne 0.0346121 -1.47407 3.23223 1
719 Ne 0.564605 -0.281349 4.14631 1
720 Ne 0.908713 1.53112 3.29782 1
721 Ne -0.621087 1.38791 1.6599 1
724 Ne -0.628128 -1.75418 3.96033 1
725 Ne -0.321359 -1.08738 1.23776 1
726 Ne 0.0853552 1.76499 2.87211 1
727 Ne -0.197536 -0.793953 0.948942 1
730 Ne -1.27194 -0.64129 2.96259 1
735 Ne 1.24791 -0.0438423 0.88295 1
739 Ne 0.903392 -1.49741 0.542792 1
740 Ne 0.979308 0.0330076 3.05941 1
742 Ne 1.18923 0.152093 2.95451 1
750 Ne -0.184208 0.00924464 0.444054 1
754 Ne -0.507619 0.442428 1.46418 1
760 Ne -0.415533 0.138856 3.51866 1
761 Ne 0.517976 0.823299 1.84782 1
763 Ne -0.826323 0.788785 4.26029 1
769 Ne -0.76203 1.36742 2.70601 1
771 Ne 0.0583408 1.33394 1.86427 1
776 Ne 0.361896 -1.61578 4.30837 1
778 Ne 0.690582 0.216806 3.28631 1
779 Ne 0.180853 1.18821 0.802421 1
780 Ne -1.64592 -0.658291 4.72236 1
781 Ne -1.15146 1.07426 0.810864 1
788 Ne 1.122 0.721367 2.17255 1
789 Ne -0.208258 -0.991729 2.79119 1
791 Ne 0.45619 -0.806491 5.02937 1
794 Ne 0.0569785 0.0377577 3.54931 1
796 Ne -0.144307 1.0244 4.30363 1
798 Ne -0.21197 1.4283 3.29235 1
799 Ne 1.65356 -0.57645 4.95388 1
814 Ne -1.01778 1.33095 1.92982 1
817 Ne 0.738033 -1.47458 2.15826 1
830 Ne -0.822496 0.317502 3.59959 1
833 Ne 0.308554 1.86574 3.99043 1
834 Ne -0.547539 -0.888573 1.67021 1
835 Ne -0.109272 -0.534223 2.55804 1
836 Ne 0.888905 -0.168973 0.369076 1
839 Ne -0.688925 -1.15687 0.0400483 1
842 Ne 1.05379 -1.02002 2.53593 1
847 Ne 0.960001 -0.467064 1.27986 1
849 Ne -0.340101 0.728574 1.1966 1
853 Ne 0.699928 -1.11281 4.80083 1
855 Ne 1.21284 1.01136 1.74609 1
856 Ne -0.418929 0.661915 3.40613 1
860 Ne -0.68497 0.504067 0.816899 1
861 Ne -1.22911 -0.806107 4.45682 1
863 Ne -1.26113 1.02829 4.6562 1
866 Ne -0.317023 -0.210446 1.41681 1
867 Ne -1.33612 0.621415 0.401199 1
870 Ne -0.773174 1.26641 3.83928 1
873 Ne 0.175558 -1.39988 4.16419 1
880 Ne 0.26185 1.7121 0.363201 1
882 Ne 1.5859 -0.226254 1.96454 1
887 Ne 0.845637 -0.17793 0.875975 1
889 Ne -1.30052 1.29643 4.24292 1
890 Ne -0.739752 1.38468 4.26522 1
895 Ne -0.187648 -0.194215 0.794997 1
897 Ne -0.866612 0.448368 0.71047 1
899 Ne 0.268921 -1.85196 2.49825 1
900 Ne 1.31051 0.945513 3.42479 1
907 Ne -0.763414 -0.291036 0.738611 1
911 Ne -0.296937 -1.02644 2.58747 1
912 Ne -0.350332 1.56633 4.41726 1
915 Ne 0.471574 -1.45829 2.20614 1
917 Ne 0.820723 -1.30122 0.306761 1
920 Ne -0.128404 1.90875 0.531442 1
928 Ne -0.401335 1.15921 2.46986 1
931 Ne 1.73495 -0.613419 3.30282 1
933 Ne -0.364905 1.44663 2.07571 1
934 Ne -0.130342 -1.86384 4.05827 1
938 Ne 1.38196 -0.561349 0.778563 1
942 Ne 0.317111 1.68225 2.11905 1
943 Ne -1.72045 -0.399174 3.9333 1
956 Ne 0.847794 0.0773438 0.245797 1
959 Ne 0.780619 1.46307 4.19886 1
964 Ne 0.464744 -1.04876 2.07906 1
970 Ne -0.47158 1.35089 4.96572 1
973 Ne 0.235941 -1.74473 4.25358 1
979 Ne 1.8884 0.655445 2.82521 1
981 Ne -1.48613 -0.663359 0.101605 1
984 Ne -1.48608 0.177212 0.931675 1
988 Ne 1.04309 -0.739726 4.19232 1
992 Ne 1.18706 -0.287952 1.84645 1
995 Ne -0.702054 1.38181 0.43401 1
996 Ne -0.802477 -1.63079 4.10083 1
998 Ne -0.203397 1.50187 1.84045 1
999 Ne 1.26204 -0.0658508 4.36322 1
1001 Ne 0.46609 -0.0219814 1.04966 1
1005 Ne 1.56025 0.704371 3.98387 1
1006 Ne -1.55547 0.491213 0.779887 1
1007 Ne -1.19947 0.500892 4.09192 1
1009 Ne 0.25485 -0.739474 1.90724 1
1010 Ne -1.08345 -0.786687 0.73836 1
1015 Ne -1.34808 1.29191 1.13525 1
1017 Ne 1.08945 0.725414 4.66296 1
1019 Ne -0.763799 0.437408 3.02643 1
1023 Ne 0.807181 1.49026 1.26109 1
1033 Ne -1.28729 0.588493 1.24055 1
1035 Ne -1.36907 1.16395 2.87658 1
1039 Ne -0.395463 -0.951848 3.31659 1
1046 Ne 0.598121 1.41612 0.936247 1
1049 Ne 0.159398 0.601407 2.04292 1
1050 Ne -0.902587 0.618498 1.46429 1
1057 Ne 1.33876 0.508286 5.54082 1
1058 Ne 0.00344935 0.373214 3.86427 1
1071 Ne 0.583016 -0.448159 2.0014 1
1076 Ne 0.528532 -1.76779 5.19004 1
1079 Ne 1.76412 -0.111875 1.94224 1
1081 Ne -1.3589 -0.562443 3.26741 1
1086 Ne 1.49721 -0.422469 1.83147 1
1099 Ne -0.624221 -0.884729 1.51133 1
1109 Ne -0.550967 -0.907261 3.75938 1
1111 Ne 0.0245199 1.70565 0.00984855 1
1114 Ne 1.35451 -1.0804 2.88751 1
1115 Ne 0.689274 -0.178291 1.74851 1
1119 Ne 1.10267 -0.181663 2.46991 1
1122 Ne 1.02855 -0.412517 3.10933 1
1124 Ne -1.56967 -0.672774 0.216119 1
1127 Ne -0.771873 1.53044 0.0529161 1
1129 Ne -0.756879 1.53354 1.427 1
1132 Ne -1.58929 0.731845 4.7293 1
1133 Ne 1.3554 -0.511172 1.49843 1
1135 Ne 1.05038 -0.74541 2.70101 1
1137 Ne -1.63601 0.44206 2.24104 1
1138 Ne -0.197822 1.60352 3.33551 1
1140 Ne 1.33179 -1.37043 2.70685 1
1142 Ne 1.10863 -0.898284 3.5064 1
1150 Ne -0.43906 0.715162 5.04251 1
1153 Ne -1.12882 -0.0496934 2.7847 1
1154 Ne 1.38631 0.527179 0.536937 1
1155 Ne -0.0911426 1.76637 4.12612 1
1156 Ne 0.128623 1.77394 2.36521 1
1158 Ne -1.02895 0.902489 1.02618 1
1161 Ne -0.343548 0.394045 1.78738 1
1162 Ne -1.63264 -0.617844 1.4605 1
1166 Ne -1.49337 0.182896 2.42298 1
1169 Ne 0.330356 1.09101 1.4244 1
1172 Ne -1.2599 0.00759382 1.25913 1
1173 Ne 0.579215 0.470035 3.92066 1
1175 Ne 0.696658 1.5263 1.94536 1
1178 Ne -1.87803 0.730872 3.21797 1
1181 Ne -0.00263386 -1.06735 5.44505 1
1182 Ne 0.678627 0.887297 4.02036 1
1183 Ne -1.81681 0.115468 0.206474 1
1191 Ne -0.556805 1.78177 3.93138 1
1192 Ne 1.67931 0.0911765 1.85672 1
1201 Ne -1.92391 0.116493 2.3875 1
1202 Ne 0.972882 0.0299383 2.14291 1
1212 Ne -0.626756 -0.280489 4.18949 1
1214 Ne 2.14969 0.278919 3.23464 1
1220 Ne 1.29074 -0.176595 1.51477 1
1222 Ne -0.96817 -0.0378755 0.483836 1
1224 Ne -0.945815 1.29492 1.38206 1
1226 Ne 1.65102 -0.156981 0.32981 1
1228 Ne 1.65195 1.15133 0.329665 1
1231 Ne -0.446302 1.40995 4.17252 1
1233 Ne 1.32242 -0.541432 3.5197 1
1237 Ne 1.40807 -0.884307 1.43725 1
1241 Ne -1.53533 0.571064 2.99523 1
1242 Ne 0.876824 -1.62298 5.34463 1
1243 Ne -1.50713 -0.762012 4.06659 1
1244 Ne -1.11119 1.07928 4.84523 1
1252 Ne -0.138828 -0.489276 2.11401 1
1253 Ne -1.12237 0.400287 4.95977 1
1257 Ne -0.0197001 0.100148 1.54186 1
1266 Ne -0.558989 1.07959 3.303 1
1269 Ne -0.845708 -1.00807 2.04052 1
1271 Ne -0.427475 1.03525 0.552608 1
1274 Ne -0.819067 0.336191 1.51042 1
1281 Ne -1.6806 -0.277835 5.27574 1
1282 Ne 0.0955819 0.844677 1.30474 1
1285 Ne -0.814802 0.0302848 1.07903 1
1289 Ne -1.16179 0.182186 4.3263 1
1290 Ne -1.57599 1.08813 2.96585 1
1294 Ne 1.178 -1.39706 1.91995 1
1299 Ne -0.0664184 -0.294617 4.31214 1
1305 Ne 0.257931 0.639904 1.29344 1
1307 Ne 0.810944 -0.0596138 1.90903 1
1313 Ne -1.71572 -0.116458 3.62176 1
1315 Ne -1.59879 -0.411566 4.33366 1
1321 Ne 0.221 -0.844998 0.0888266 1
1323 Ne -1.59024 -0.838606 5.20911 1
1326 Ne 1.05304 0.807535 2.96957 1
1327 Ne -0.718949 -1.78203 3.90712 1
1331 Ne 1.3781 -0.709464 2.19948 1
1335 Ne 0.71875 -1.56115 1.62666 1
1336 Ne 0.867013 -0.914672 2.08604 1
1337 Ne -0.394015 1.78521 3.97535 1
1340 Ne 0.0569038 -1.21834 2.94375 1
1343 Ne -0.371387 0.496036 2.22801 1
1346 Ne 1.31767 -1.08629 4.31092 1
1352 Ne -0.858093 -0.371882 2.30543 1
1357 Ne -0.927557 -1.45232 1.96388 1
1358 Ne 0.321757 0.57053 1.61774 1
1362 Ne 0.969502 0.827703 3.40312 1
1369 Ne 0.815156 -1.26836 4.26832 1
1370 Ne -0.254499 -0.561823 0.18295 1
1372 Ne 0.834587 1.30026 3.93725 1
1377 Ne -1.66819 -0.441694 2.50559 1
1379 Ne 0.0369573 1.94198 3.81285 1
1383 Ne 0.132697 -1.76774 0.295734 1
1384 Ne -1.56968 -0.803844 0.455954 1
1385 Ne 0.497762 -0.517888 3.29443 1
1386 Ne 1.23808 0.381311 3.31419 1
1390 Ne -0.131421 1.60852 1.59136 1
1399 Ne 1.5302 -0.361779 5.54338 1
1400 Ne -0.694033 -0.605036 0.890398 1
1401 Ne 0.0564404 -1.80696 2.8239 1
1402 Ne 1.73369 -0.234719 3.30573 1
1403 Ne -0.717207 -1.29892 2.32813 1
1410 Ne 0.0534668 -1.38297 1.23343 1
1411 Ne -1.39874 -0.683781 1.92496 1
1412 Ne 1.208 -1.1127 0.609308 1
1415 Ne -0.375396 -2.08369 2.98885 1
1416 Ne -0.176153 -1.39963 1.91917 1
1417 Ne 0.943711 -0.656376 1.76525 1
1421 Ne 0.161514 0.169607 2.30159 1
1422 Ne 0.118234 -0.0460982 4.96651 1
1424 Ne -1.30026 -1.39006 3.76305 1
1426 Ne -0.926267 -1.37306 2.00328 1
1427 Ne 1.64369 -0.860347 1.04222 1
1432 Ne 0.132354 -0.330246 3.36245 1
1433 Ne 1.05302 0.491694 1.47117 1
1435 Ne -0.360729 -0.377511 1.51844 1
1440 Ne 0.143121 0.630281 4.27716 1
1441 Ne -1.80178 0.63902 0.929632 1
1444 Ne 1.46034 -0.89854 0.187419 1
1445 Ne -0.363674 0.527928 4.70667 1
1449 Ne 0.257394 -1.17669 4.11429 1
1452 Ne -1.61543 0.607892 2.81205 1
1455 Ne -1.39093 1.10882 4.56903 1
1461 Ne 0.388618 1.09902 5.2365 1
1464 Ne 0.206099 0.712056 3.64857 1
1469 Ne -0.32176 -0.624231 1.96819 1
1473 Ne -0.234432 -1.69366 5.41921 1
1493 Ne -0.807577 -0.950646 2.23341 1
1498 Ne -1.46599 -0.507716 1.8625 1
1502 Ne -0.745734 1.65439 1.97017 1
1504 Ne -1.14032 0.970947 5.48629 1
1507 Ne 0.0592049 1.45626 4.78063 1
1510 Ne -0.24979 -0.626843 1.43105 1
1517 Ne -1.66048 -0.515853 1.90114 1
1519 Ne -0.817796 0.0996053 0.0514176 1
1520 Ne 1.55551 0.217838 5.56301 1
1521 Ne -1.85193 0.145775 4.35632 1
1523 Ne -1.10357 -0.548669 4.11297 1
1530 Ne -1.16214 1.51611 3.12847 1
1533 Ne -1.20431 -1.62317 2.95513 1
1536 Ne 0.218936 0.45042 5.10562 1
1539 Ne 1.0166 0.320241 0.222645 1
1543 Ne 1.48573 1.12921 2.37488 1
1544 Ne -0.338394 0.614428 4.2412 1
1550 Ne 1.35453 -0.818259 2.40784 1
1558 Ne -1.18674 -1.47553 0.950704 1
1559 Ne -1.48913 -0.636695 1.44367 1
1563 Ne -0.885571 -1.39154 1.17775 1
1570 Ne -1.55889 0.472524 2.86906 1
1571 Ne 0.383336 -1.27393 4.2098 1
1575 Ne 1.23942 1.40809 2.28479 1
1579 Ne 1.09879 -0.604201 0.613475 1
1584 Ne -0.0620567 1.01244 4.64663 1
1585 Ne -1.3588 1.02905 3.38843 1
1589 Ne 1.16054 0.447609 1.97719 1
1595 Ne -0.495265 -0.716908 0.104135 1
1598 Ne 0.613357 -1.7087 4.79589 1
1603 Ne -1.10439 0.0380649 1.97551 1
1604 Ne -0.810448 1.20041 3.43422 1
1611 Ne 0.585272 1.46369 1.08131 1
1624 Ne -0.278918 -0.575932 0.546409 1
1625 Ne 1.01193 1.05385 2.84629 1
1627 Ne 0.43265 -0.456092 4.68932 1
1628 Ne -0.714439 2.018 0.698919 1
1630 Ne -0.125191 -1.67789 4.45571 1
1631 Ne -1.6707 0.500476 4.24965 1
1632 Ne 1.28768 -1.18587 1.7958 1
1638 Ne 0.414766 1.37793 0.0814418 1
1643 Ne -0.345263 0.35785 4.62493 1
1645 Ne 1.67846 0.230999 4.02469 1
1650 Ne 1.74483 -0.209496 2.62689 1
1652 Ne -1.28601 0.383351 1.9965 1
1653 Ne 1.62838 1.00112 2.31698 1
1654 Ne 0.194004 -0.973046 0.631603 1
1655 Ne 1.88573 -0.940721 3.17156 1
1656 Ne 0.454606 1.3682 1.66372 1
1657 Ne -1.041 -0.00622461 5.39624 1
1659 Ne 0.830706 0.877723 2.08081 1
1662 Ne -1.1545 0.307572 2.59516 1
1668 Ne -0.145311 -1.43987 2.26631 1
1674 Ne -1.06322 0.863861 0.0843806 1
1677 Ne -0.177285 1.17892 2.49913 1
1678 Ne -0.864056 0.21367 1.50877 1
1680 Ne -1.32806 -0.733755 3.85439 1
1681 Ne -0.426996 1.88601 0.192783 1
1684 Ne -0.438242 0.0747267 5.2019 1
1686 Ne -0.997776 -0.81372 0.154306 1
1689 Ne 1.81251 -0.363876 0.574211 1
1693 Ne 0.565555 1.2891 3.66649 1
1697 Ne -0.845557 1.51866 2.89972 1
1698 Ne 0.413422 0.38795 0.522037 1
1701 Ne 0.574995 1.53869 1.54501 1
1703 Ne -0.330185 1.77522 2.30122 1
1705 Ne -0.164564 -1.02583 4.97134 1
1708 Ne 0.465343 1.82812 4.9058 1
1715 Ne -1.20036 -0.122036 3.50293 1
1718 Ne -0.743731 -0.694431 2.6987 1
1722 Ne -0.796484 -1.70824 5.32166 1
1723 Ne 0.94465 0.729304 5.1112 1
1730 Ne 0.306815 1.44141 1.08435 1
1736 Ne 1.36018 0.587997 0.357922 1
1737 Ne -0.299113 -1.59756 1.71925 1
1739 Ne -0.673449 -0.254433 3.19964 1
1747 Ne 0.801007 -1.47581 2.89195 1
1750 Ne -1.66385 0.529851 1.86086 1
1753 Ne 1.97531 -0.0983055 0.138508 1
1754 Ne -0.356102 -1.81234 5.25869 1
1756 Ne -0.346184 -0.711989 2.77738 1
1757 Ne -1.62316 0.340796 0.117912 1
1758 Ne 1.76152 -0.586228 0.365042 1
1763 Ne 0.165722 -1.1058 1.27126 1
1765 Ne 1.96118 -0.129998 0.244171 1
1776 Ne 1.59911 -1.39547 0.251158 1
1782 Ne -1.71266 0.946515 5.3188 1
1785 Ne 0.979391 1.42744 3.24917 1
1786 Ne -0.387635 1.02552 2.13489 1
1788 Ne 1.32548 0.521542 5.21675 1
1789 Ne 0.941168 -0.183206 4.68325 1
1790 Ne 1.37333 -1.58244 3.29927 1
1806 Ne 1.10731 -1.42445 2.20844 1
1807 Ne -0.210698 1.19172 1.83336 1
1809 Ne -0.739458 -0.869267 2.02747 1
1811 Ne -1.30277 -0.469978 2.37561 1
1816 Ne -0.336239 0.835272 1.55463 1
1819 Ne -1.70934 -0.929842 5.36723 1
1820 Ne 0.53163 -0.0889711 4.53066 1
1824 Ne -0.879482 0.144589 0.087094 1
1827 Ne 1.18665 0.0694846 3.88503 1
1828 Ne -0.255763 -0.204311 3.20039 1
1833 Ne -0.177349 0.0921522 3.40171 1
1835 Ne 0.42677 1.52389 4.08242 1
1837 Ne 1.1069 -1.06555 1.01979 1
1841 Ne -0.630904 1.99783 0.265373 1
1843 Ne -0.28103 -0.0647351 2.16138 1
1844 Ne -1.717 -0.0646442 3.34252 1
1846 Ne -1.01836 -1.16432 3.40907 1
1848 Ne -0.0727318 1.59736 1.25804 1
1849 Ne -1.13951 0.253143 2.29959 1
1851 Ne 1.05473 0.527889 4.19762 1
1852 Ne -0.184258 -0.815999 3.94433 1
1854 Ne 0.906555 1.27584 3.928 1
1855 Ne -1.43901 -0.708357 5.43754 1
1856 Ne 0.774875 -1.46869 0.73486 1
1858 Ne 1.03673 0.335797 1.96718 1
1861 Ne -0.771445 1.52141 5.23722 1
1862 Ne -0.522976 1.54114 5.54597 1
1863 Ne 0.116574 0.86523 1.17126 1
1864 Ne 1.64074 -0.0819762 0.793507 1
1868 Ne 1.53572 -1.16641 4.13266 1
1870 Ne 1.45874 1.09082 4.45677 1
1873 Ne 0.625783 -1.6595 3.94185 1
1876 Ne -0.648211 -0.884479 4.76774 1
1877 Ne -1.63908 -0.868797 2.57636 1
1878 Ne 0.422784 -0.669721 0.931352 1
1887 Ne -0.310254 -1.64487 4.83059 1
1888 Ne 0.279704 -0.622536 1.73445 1
1892 Ne 0.71747 -1.48026 0.643569 1
1893 Ne 1.4025 -1.0272 3.91677 1
1895 Ne -0.489268 -0.725606 3.974 1
1897 Ne -1.43088 -0.722795 1.53842 1
1904 Ne 1.35798 -0.430028 3.79514 1
1908 Ne -0.778842 -0.401985 0.804875 1
1910 Ne 1.4322 1.40753 0.579318 1
1913 Ne 0.0282988 0.417911 0.17812 1
1920 Ne 0.0115614 -0.0881343 4.27059 1
1921 Ne -0.642618 -0.479447 1.80854 1
1925 Ne 1.46129 0.671912 5.2716 1
1929 Ne 1.74572 0.293407 2.23946 1
1930 Ne -1.28053 -1.0307 2.9161 1
1931 Ne -0.947685 -1.34537 0.0143234 1
1932 Ne -1.46726 -0.213373 2.35466 1
1933 Ne 0.847884 1.59152 3.3166 1
1937 Ne -1.54183 -0.774766 5.33948 1
1941 Ne -0.678981 0.365426 2.87212 1
1944 Ne -0.452011 -0.94755 3.49941 1
1948 Ne -0.139613 0.72914 2.97335 1
1959 Ne -0.95789 -0.0607 4.49355 1
1960 Ne 1.36017 0.403226 4.18369 1
1961 Ne 0.272813 -1.23789 4.89407 1
1965 Ne 0.332882 0.355702 4.55007 1
1968 Ne 0.362435 0.242346 1.17232 1
1971 Ne 0.135815 0.235205 3.00456 1
1972 Ne 0.151263 0.669545 2.35611 1
1980 Ne -1.60181 -0.842858 0.069412 1
1983 Ne 1.78855 0.221118 3.6505 1
1984 Ne 0.974191 0.425035 3.68071 1
1985 Ne 1.58082 0.851156 1.9967 1
1988 Ne 1.11735 1.64831 0.935618 1
1992 Ne 1.54261 -0.628421 3.19094 1
1993 Ne 0.281789 -1.57692 2.65274 1
1997 Ne -0.0137671 -0.983592 2.75256 1
1998 Ne 0.982672 -1.0269 2.27887 1
2007 Ne 0.525138 -1.2085 2.73395 1
2008 Ne -0.828413 1.66581 5.5599 1
2010 Ne -0.46684 1.81838 0.828408 1
2015 Ne -0.260001 0.559381 1.47846 1
2018 Ne -1.20672 1.00719 3.25586 1
2021 Ne -1.00407 1.3941 4.1626 1
2023 Ne 1.08808 -0.563504 0.608031 1
2026 Ne 1.87422 0.0513497 2.0359 1
2031 Ne 1.33066 1.15762 4.07769 1
2039 Ne 0.201007 1.52169 3.30477 1
2042 Ne -0.61385 0.619471 2.97563 1
2047 Ne 0.302426 -0.3325 1.91511 1
2051 Ne 0.624692 1.59693 1.18114 1
2052 Ne -1.34899 0.406838 1.02593 1
2054 Ne 1.3422 0.7495 0.350971 1
2056 Ne 0.104095 -0.0777912 5.07218 1
2059 Ne 0.149509 0.00166852 2.19687 1
2060 Ne 0.756072 -0.704504 5.40743 1
2068 Ne -0.415656 -1.92349 2.67567 1
2069 Ne -0.218388 1.5563 2.13602 1
2070 Ne -1.6938 1.07615 3.16336 1
2073 Ne -0.964353 -0.684857 4.63698 1
2075 Ne -0.939041 -0.0621327 2.57794 1
2078 Ne -0.249317 0.135223 0.846 1
2083 Ne 1.20035 -0.0475202 3.18943 1
2087 Ne -1.75988 -0.694643 5.51774 1
2103 Ne -0.32954 -1.78515 2.32092 1
2106 Ne -1.0615 1.03761 3.27676 1
2107 Ne -0.700761 1.51477 2.45148 1
2110 Ne -1.18488 0.936435 2.36786 1
2118 Ne 1.37219 0.811327 2.141 1
2121 Ne 0.864931 0.0934177 3.14581 1
2122 Ne 1.76884 0.17084 1.6307 1
2126 Ne 0.213007 1.61395 5.32769 1
2128 Ne 0.610938 0.835154 0.0305711 1
2130 Ne -0.740782 -1.52216 1.68382 1
2131 Ne -1.31438 -1.10591 5.36711 1
2133 Ne 1.39397 -0.284318 4.53971 1
2138 Ne -0.263044 -0.188484 2.89342 1
2143 Ne 1.55886 -0.973136 5.0223 1
2146 Ne -0.885469 0.318731 2.86591 1
2147 Ne 0.401438 0.574734 0.58633 1
2148 Ne 0.326464 0.483703 3.39373 1
2157 Ne -1.086 -0.345185 4.0779 1
2158 Ne 0.91024 -1.5911 2.16827 1
2165 Ne 1.60868 1.0113 1.0764 1
2166 Ne -0.64037 1.30133 1.12829 1
2168 Ne 1.52682 0.382284 4.82552 1
2170 Ne 1.71743 0.0452503 0.71255 1
2171 Ne -0.127152 1.35632 3.13804 1
2175 Ne 1.04573 0.445085 2.58932 1
2181 Ne -0.086916 0.802915 4.17074 1
2187 Ne -0.979783 -0.8064 0.646511 1
2189 Ne -0.660204 -0.845669 2.50499 1
2190 Ne -0.655429 0.199798 4.95041 1
2192 Ne 0.328252 1.72956 4.57171 1
2195 Ne -0.099059 -1.685 1.04879 1
2197 Ne -1.51787 -1.22193 0.824513 1
2209 Ne 1.13992 -0.534676 2.23515 1
2214 Ne -0.65935 -0.888683 0.236413 1
2215 Ne 0.687547 -0.399257 2.84783 1
2219 Ne 0.0899106 -0.872236 2.42088 1
2220 Ne -0.530277 1.23099 5.53888 1
2229 Ne 0.380775 -1.1166 0.0653981 1
2233 Ne -1.75683 0.0742409 4.45662 1
2234 Ne -0.0855619 1.96076 2.9015 1
2236 Ne 0.784897 1.36115 4.69551 1
2240 Ne -0.17524 -0.460857 4.00656 1
2242 Ne 1.77403 0.913361 3.13388 1
2249 Ne -0.847431 -1.17533 5.11791 1
2255 Ne 0.462346 1.85557 5.36613 1
2260 Ne 1.23757 -0.916361 2.41545 1
2264 Ne 0.0522764 0.209222 4.94345 1
2265 Ne 0.842134 -1.45998 2.53555 1
2268 Ne 1.65441 -0.716273 2.7859 1
2269 Ne -0.433871 1.5328 2.87274 1
2274 Ne 0.979254 -0.872197 2.93128 1
2279 Ne -0.798144 -0.804402 4.33887 1
2282 Ne 0.294815 1.34915 4.62544 1
2284 Ne 0.0470306 -1.55594 2.61802 1
2291 Ne -0.639254 -1.53935 1.028 1
2292 Ne 1.82192 -0.567564 3.51614 1
2293 Ne 0.485475 1.77487 3.26943 1
2294 Ne -1.35794 1.06757 2.98479 1
2297 Ne 0.17658 1.38023 2.1359 1
2300 Ne -0.065533 0.187607 2.39812 1
2301 Ne 0.870513 0.313678 4.01239 1
2302 Ne 0.895815 0.76031 1.64406 1
2305 Ne -1.41334 -1.1333 0.191707 1
2307 Ne 0.77798 0.303335 3.2108 1
2311 Ne -1.08761 1.36056 2.61808 1
2315 Ne 0.987115 1.64084 3.96524 1
2320 Ne -0.159476 -1.91847 1.11341 1
2321 Ne 0.0951301 0.451815 0.974996 1
2323 Ne 1.18835 -0.208696 1.88585 1
2333 Ne 1.81895 -0.0986667 1.01104 1
2339 Ne 0.696085 -0.903666 0.377193 1
2342 Ne 1.59615 -0.74817 0.242277 1
2350 Ne -0.182594 -1.66483 1.48234 1
2352 Ne -1.82151 0.333365 3.75465 1
2353 Ne 0.992941 -1.23297 2.05501 1
2357 Ne 0.671232 -1.00206 2.08527 1
2358 Ne 1.29076 0.159982 5.27163 1
2366 Ne 0.302934 1.01887 4.79192 1
2368 Ne 0.446502 1.96062 1.01757 1
2369 Ne 1.21232 -0.471087 4.67312 1
2371 Ne -0.496135 -0.947754 0.850118 1
2373 Ne 1.46901 0.885307 0.423671 1
2374 Ne 0.385453 -1.6864 5.12202 1
2384 Ne -1.63476 -0.22408 2.38137 1
2385 Ne 1.24495 0.688378 2.13958 1
2395 Ne 1.58631 -0.550163 1.40034 1
2399 Ne -0.433882 1.34803 1.1345 1
2403 Ne -0.380291 2.04473 2.92087 1
2414 Ne -0.969042 -0.292783 0.302659 1
2415 Ne 0.225222 -1.88847 1.33716 1
2418 Ne 0.410901 1.21218 0.549095 1
2419 Ne -0.209563 -1.33312 3.23146 1
2422 Ne -0.0313718 -1.66566 1.9506 1
2424 Ne 1.46344 0.895742 2.42648 1
2428 Ne 1.1793 -1.05577 0.0159316 1
2429 Ne -1.04484 0.202919 0.972603 1
2430 Ne -1.31129 0.272903 2.99855 1
2433 Ne -0.308523 -1.34654 1.51337 1
2435 Ne -0.46486 -0.899987 3.64447 1
2441 Ne -0.881551 1.37295 2.15514 1
2442 Ne -0.173112 -0.689234 3.4385 1
2443 Ne 1.55983 0.913156 0.476886 1
2444 Ne 2.14669 0.163468 0.468799 1
2447 Ne 0.526952 0.484268 5.17049 1
2453 Ne 1.22273 1.64744 0.712329 1
2454 Ne 0.986489 -1.68295 5.44394 1
2461 Ne -1.22911 -0.774043 3.59441 1
2462 Ne -0.868344 0.150033 4.02769 1
2472 Ne -0.332018 -0.233386 3.93028 1
2474 Ne 1.39962 0.937167 0.751554 1
2477 Ne 1.45562 -0.996484 2.2372 1
2481 Ne 0.733757 -1.35344 0.851416 1
2485 Ne -1.07612 -0.029619 2.00401 1
2489 Ne 0.504629 -0.29574 0.854306 1
2492 Ne -1.73373 -0.43962 1.63115 1
2494 Ne 1.45217 -1.38471 0.849905 1
2495 Ne 1.86865 0.0444296 1.18081 1
2499 Ne 0.13927 0.714948 2.26288 1
2501 Ne 0.564643 0.350333 1.57911 1
2502 Ne 0.701254 -0.430723 0.340384 1
2505 Ne -1.5593 0.831426 1.68042 1
2507 Ne -0.369257 0.304399 0.339271 1
2514 Ne 1.21929 1.46134 3.92116 1
2516 Ne 0.0735727 -1.86346 3.3833 1
2520 Ne 0.10919 -0.839361 0.974412 1
2522 Ne -1.21586 -1.36528 2.89976 1
2526 Ne -0.229494 2.08697 0.70209 1
2527 Ne 1.12328 0.615851 0.473712 1
2530 Ne 0.312344 0.767851 4.9978 1
2531 Ne -1.38375 -0.73821 1.62939 1
2540 Ne 0.241628 0.239844 2.04965 1
2541 Ne 1.23593 0.310808 0.118601 1
2545 Ne -0.191174 -1.86948 3.17408 1
2546 Ne -1.7072 -0.990409 3.23865 1
2548 Ne -0.372741 -0.661812 3.49725 1
2549 Ne -1.741 -0.118095 4.62086 1
2556 Ne -1.89607 -0.0392004 5.5328 1
2562 Ne 1.73376 0.963899 2.97351 1
2564 Ne -0.0677193 -0.558643 2.53451 1
2565 Ne -0.668749 -0.47233 5.21546 1
2567 Ne 0.214934 -1.99823 0.0626227 1
2571 Ne -0.919721 0.656126 0.542346 1
2572 Ne -0.508826 1.75761 1.61454 1
2582 Ne -1.76366 0.593093 5.34947 1
2584 Ne -1.28896 1.23768 3.48897 1
2588 Ne 0.162746 -0.720637 1.74205 1
2591 Ne -0.518405 -0.83394 4.61507 1
2592 Ne -0.614789 -0.766209 5.19368 1
2593 Ne -1.51657 -0.9579 2.60215 1
2594 Ne 0.881178 -0.436069 3.23894 1
2597 Ne -1.67461 -0.362775 3.74504 1