ITEM: TIMESTEP
0
ITEM: NUMBER OF ATOMS
10060
ITEM: BOX BOUNDS pp pp pp
-2.5000000000000000e+01 2.5000000000000000e+01
-2.5000000000000000e+01 2.5000000000000000e+01
0.0000000000000000e+00 5.5640000000000001e+00
ITEM: ATOMS id element x y z inside
1 Si -4.1173 2.8662 4.6368 2
2 O -4.0743 1.2332 4.6368 2
3 O -4.8543 3.3782 3.2468 2
4 Si -5.0153 -0.1017 4.6368 2
5 O -4.0213 -1.3978 4.6368 2
6 O -5.9123 -0.1197 3.2468 2
7 Si -3.9983 -3.0307 4.6368 2
8 O -2.4313 -3.4928 4.6368 2
9 O -4.7123 -3.5718 3.2458 2
10 Si -1.4523 -4.7998 4.6368 2
11 O 0.0877 -4.2547 4.6368 2
12 O -1.7123 -5.6597 3.2468 2
13 Si 1.6477 -4.7387 4.6368 2
14 O 2.5717 -3.3918 4.6368 2
15 O 1.9407 -5.5857 3.2448 2
16 Si 4.1187 -2.8668 4.6368 2
17 O 4.0767 -1.2337 4.6368 2
18 O 4.8547 -3.3788 3.2448 2
19 Si 5.0177 0.1013 4.6368 2
20 O 4.0227 1.3973 4.6368 2
21 O 5.9127 0.1202 3.2438 2
22 Si 3.9997 3.0303 4.6368 2
23 O 2.4337 3.4943 4.6368 2
24 O 4.7127 3.5713 3.2438 2
25 Si 1.4537 4.8012 4.6368 2
26 O -0.0863 4.2553 4.6368 2
27 O 1.7127 5.6593 3.2448 2
28 Si -1.6463 4.7382 4.6368 2
29 O -2.5703 3.3912 4.6368 2
30 O -1.9413 5.5862 3.2458 2
31 Si -4.1193 2.8662 1.8548 2
32 O -4.0743 1.2332 1.8548 2
33 O -4.8543 3.3792 0.4638 2
34 Si -5.0163 -0.1008 1.8548 2
35 O -4.0203 -1.3958 1.8548 2
36 O -5.9133 -0.1197 0.4638 2
37 Si -3.9973 -3.0297 1.8548 2
38 O -2.4313 -3.4928 1.8548 2
39 O -4.7133 -3.5728 0.4648 2
40 Si -1.4533 -4.8018 1.8548 2
41 O 0.0857 -4.2557 1.8548 2
42 O -1.7133 -5.6597 0.4628 2
43 Si 1.6457 -4.7378 1.8548 2
44 O 2.5717 -3.3927 1.8538 2
45 O 1.9417 -5.5857 0.4638 2
46 Si 4.1177 -2.8657 1.8548 2
47 O 4.0727 -1.2337 1.8538 2
48 O 4.8547 -3.3788 0.4638 2
49 Si 5.0147 0.1013 1.8538 2
50 O 4.0177 1.3953 1.8538 2
51 O 5.9137 0.1202 0.4638 2
52 Si 3.9957 3.0293 1.8548 2
53 O 2.4297 3.4912 1.8538 2
54 O 4.7127 3.5722 0.4648 2
55 Si 1.4527 4.8003 1.8548 2
56 O -0.0873 4.2553 1.8548 2
57 O 1.7127 5.6602 0.4638 2
58 Si -1.6473 4.7393 1.8548 2
59 O -2.5733 3.3942 1.8548 2
60 O -1.9413 5.5862 0.4628 2
61 Ne -1.01629 -2.30348 2.58913 0
62 Ne 1.12207 1.90483 5.26962 0
63 Ne 1.69637 -1.15611 4.32714 0
64 Ne 1.48829 0.840813 1.19511 1
65 Ne 1.64025 -1.19488 1.633 0
66 Ne 2.15479 -0.482651 4.70088 0
67 Ne -3.53597 -0.243134 5.28813 0
68 Ne -1.00945 -2.65932 4.69428 0
69 Ne -1.35216 -2.47438 3.05783 0
70 Ne 3.24463 -0.339594 4.3592 0
71 Ne -0.642588 0.0221798 1.52695 1
72 Ne 0.246689 -1.09971 2.49715 1
73 Ne -2.39887 2.14126 4.79749 0
74 Ne -2.69794 1.35297 4.17955 0
75 Ne 0.255618 -2.22087 1.67742 0
76 Ne 1.21688 -3.10831 4.22188 0
77 Ne -2.87963 0.403452 1.55599 0
78 Ne -1.31233 -2.79138 3.1069 0
79 Ne -3.4721 0.378566 1.0468 0
80 Ne -2.85749 -1.86755 0.408313 0
81 Ne 1.46814 0.682973 4.27504 1
82 Ne -0.215479 0.0472987 5.06123 1
83 Ne -1.20665 2.20395 1.02772 0
84 Ne -1.9442 -2.61913 3.64435 0
85 Ne -3.33111 1.2155 4.73572 0
86 Ne -1.10447 -1.1716 3.52398 1
87 Ne -2.30827 -1.49419 3.33948 0
88 Ne 2.94937 -2.00021 2.22127 0
89 Ne 2.13475 1.1498 2.70125 0
90 Ne 0.835839 0.747835 0.979847 1
91 Ne 1.86999 0.90954 3.59044 1
92 Ne 2.93962 -0.257992 1.49618 0
93 Ne 0.815975 -1.89978 4.68391 0
94 Ne -3.13372 -0.424888 3.7967 0
95 Ne -2.73229 0.0358227 0.673434 0
96 Ne 0.703322 -1.6721 1.69292 1
97 Ne 1.91022 0.223263 3.69893 1
98 Ne -1.09285 -0.404595 0.292645 1
99 Ne -2.41842 -2.41296 5.14502 0
100 Ne 0.53974 -0.588186 2.74813 1
101 Ne 1.74266 -0.769566 0.542414 1
102 Ne -1.66041 0.720294 4.93051 1
103 Ne -2.62615 -1.72116 4.4116 0
104 Ne -0.228571 3.21051 4.52771 0
105 Ne 1.61305 2.54674 2.09334 0
106 Ne -2.42382 0.417791 4.1783 0
107 Ne 0.812796 2.26484 1.77837 0
108 Ne -0.800263 -0.427994 2.40185 1
109 Ne 2.82315 0.756807 0.66429 0
110 Ne -1.5633 -1.5211 4.44631 0
111 Ne 1.53125 2.86525 4.77366 0
112 Ne 2.91559 -0.812054 5.10188 0
113 Ne 0.0388732 -1.85734 5.01874 1
114 Ne 2.41269 -0.310366 0.0612365 0
115 Ne 0.198499 2.57284 1.6775 0
116 Ne 2.21692 -0.159286 3.77677 0
117 Ne 1.10501 3.04725 3.95749 0
118 Ne 0.796787 -0.407148 0.516297 1
119 Ne 0.735947 -0.544362 4.41305 1
120 Ne -0.696586 -0.316637 2.07016 1
121 Ne 1.74496 2.0188 0.0134477 0
122 Ne 0.729092 -0.557565 5.41832 1
123 Ne 3.12216 0.498005 5.53769 0
124 Ne -1.97931 -2.27298 3.72859 0
125 Ne 0.720131 0.0436063 1.61598 1
126 Ne -2.37717 -0.373834 4.76538 0
127 Ne -2.83069 2.21187 3.84366 0
128 Ne 3.07168 1.7581 2.4015 0
129 Ne 1.08078 -1.00473 0.840775 1
130 Ne 2.45558 0.558105 1.60233 0
131 Ne 0.287764 -1.94694 4.18407 0
132 Ne 2.49449 -0.628868 2.94491 0
133 Ne -0.539649 2.11369 2.7658 0
134 Ne -0.887161 0.689326 3.31814 1
135 Ne 1.30654 -1.05623 5.20436 1
136 Ne 1.57993 0.228228 1.40772 1
137 Ne -2.79266 0.580827 1.82049 0
138 Ne 2.77032 -1.65892 0.345948 0
139 Ne -1.92389 0.301264 4.12573 0
140 Ne -0.927335 2.28408 1.27461 0
141 Ne 1.34817 0.310965 2.16077 1
142 Ne -1.85328 -0.95871 3.21237 1
143 Ne -1.31878 -3.14196 1.11354 0
144 Ne 2.51039 0.201771 2.75866 0
145 Ne -0.226074 1.97459 4.41675 0
146 Ne -1.94805 -2.40998 4.78471 0
147 Ne 0.121639 -0.409856 4.2852 1
148 Ne -0.474484 2.94571 3.88803 0
149 Ne -1.41268 2.70508 5.40695 0
150 Ne 0.903633 2.55483 1.35191 0
151 Ne 2.95939 0.810415 1.42812 0
152 Ne -3.03606 -0.690829 4.97082 0
153 Ne -1.3269 -2.86539 4.53299 0
154 Ne -2.56103 -1.65318 2.63571 0
155 Ne -0.13058 1.33763 5.22722 1
156 Ne 1.25061 2.14078 4.14831 0
157 Ne 1.16411 2.75455 2.59491 0
158 Ne 0.313487 -1.62592 0.59207 1
159 Ne -1.80264 0.647773 3.33744 1
160 Ne 1.60409 3.07055 0.508902 0
161 Ne -0.676152 -2.49276 3.52021 0
162 Ne 0.807294 3.38531 4.68749 0
163 Ne 2.44267 -0.472925 3.05603 0
164 Ne 1.52049 2.07591 1.699 0
165 Ne -0.915393 1.39641 0.837475 1
166 Ne -1.90836 2.12249 0.183632 0
167 Ne 1.71138 -0.763631 5.29013 1
168 Ne -0.544173 -1.9194 0.185812 1
169 Ne 0.292657 1.09388 5.25561 1
170 Ne 1.40899 0.0544631 3.52464 1
171 Ne -2.48179 -1.81435 1.37499 0
172 Ne -2.38172 2.50468 1.01473 0
173 Ne 3.1693 0.875799 4.90916 0
174 Ne -0.213361 -0.361229 1.56479 1
175 Ne 3.38001 -0.0924618 3.70508 0
176 Ne -0.544009 0.84039 1.26919 1
177 Ne 2.3073 -0.404216 5.20854 0
178 Ne -1.8784 1.77516 1.44019 0
179 Ne 1.29084 1.53368 3.20293 1
180 Ne -0.958471 -2.62174 3.16521 0
181 Ne -0.133695 -0.619164 1.01305 1
182 Ne -0.828771 2.84116 3.54229 0
183 Ne -1.33548 -2.93896 0.420899 0
184 Ne 2.61912 -1.28856 3.35415 0
185 Ne 0.645071 -1.49624 4.60104 1
186 Ne -2.4513 -0.601871 3.05062 0
187 Ne -2.86934 0.643218 5.37704 0
188 Ne 1.77217 -1.52075 3.41736 0
189 Ne -3.18648 -1.57726 3.90796 0
190 Ne -1.56864 2.29211 5.49007 0
191 Ne -0.893038 2.70943 0.791134 0
192 Ne 1.77127 -2.27474 3.06821 0
193 Ne 0.884693 1.03075 3.31759 1
194 Ne 1.09677 1.34476 3.26705 1
195 Ne -2.69882 0.861114 3.35072 0
196 Ne 2.79697 -0.183599 5.14001 0
197 Ne 3.12031 -1.70236 3.69986 0
198 Ne -0.619093 -1.09824 4.85 1
199 Ne 2.97476 0.0275424 4.40873 0
200 Ne -2.27402 -1.87317 5.24637 0
201 Ne -1.61015 3.0821 0.352374 0
202 Ne 2.60896 0.758857 5.02634 0
203 Ne -0.363781 -1.26298 1.73559 1
204 Ne 0.500085 2.52625 3.04377 0
205 Ne 1.96366 -1.61679 2.32413 0
206 Ne -0.257893 -0.00253118 3.29086 1
207 Ne 0.327267 -0.418872 4.03279 1
208 Ne -2.54821 -2.14765 1.23209 0
209 Ne 0.42822 -2.90885 1.98286 0
210 Ne -2.39521 -1.08739 1.14009 0
211 Ne 0.709092 1.70657 0.851489 1
212 Ne 1.8125 -0.494945 0.814046 1
213 Ne 2.68987 -0.182574 1.75703 0
214 Ne -1.31098 -1.6652 2.2592 0
215 Ne -0.777941 0.352014 1.15403 1
216 Ne 0.285903 2.76745 3.21264 0
217 Ne -1.73029 -0.10509 1.04037 1
218 Ne -0.631557 -1.77287 0.485508 1
219 Ne -1.5058 -0.0510745 1.53879 1
220 Ne -1.99426 -1.58687 1.45696 0
221 Ne -0.126451 -1.25653 2.08894 1
222 Ne 1.0387 -2.64471 5.26291 0
223 Ne -0.23591 2.26867 1.52382 0
224 Ne -2.30763 2.10385 2.9425 0
225 Ne -1.07124 2.91089 2.31183 0
226 Ne -2.46427 -2.52672 1.98719 0
227 Ne 2.68546 -2.21863 3.06746 0
228 Ne 1.73294 1.50961 2.17414 0
229 Ne 2.07547 -1.53114 1.94607 0
230 Ne 2.55541 0.693834 0.672773 0
231 Ne -1.66832 -2.70166 5.54058 0
232 Ne -1.9226 0.422387 2.67719 1
233 Ne -2.10082 0.39721 3.9476 0
234 Ne -2.36227 -1.83994 2.88591 0
235 Ne -0.826753 0.754478 3.79115 1
236 Ne -2.5592 0.355429 1.00665 0
237 Ne -0.508645 -2.39139 1.5144 0
238 Ne 1.21586 1.44265 0.446336 1
239 Ne 0.498656 0.105041 3.88341 1
240 Ne -1.58897 -1.02149 0.164184 1
241 Ne 0.964607 -2.24388 3.33514 0
242 Ne -1.38641 -2.16009 1.121 0
243 Ne -2.43028 -0.163259 2.24307 0
244 Ne -1.37759 2.09679 0.238375 0
245 Ne -2.62041 1.1556 0.192378 0
246 Ne 2.00966 1.19416 0.230821 0
247 Ne 1.76769 2.43354 0.712258 0
248 Ne 2.55246 1.65698 2.16229 0
249 Ne 0.90898 -1.16974 5.36551 1
250 Ne 0.115745 1.32089 4.83764 1
251 Ne -0.578675 1.40562 3.56081 1
252 Ne 1.75488 3.11279 3.85412 0
253 Ne 2.30958 1.82939 4.73786 0
254 Ne 2.20839 0.398825 2.66148 0
255 Ne 0.950318 2.3977 2.5816 0
256 Ne -3.04839 0.985573 0.715364 0
257 Ne -1.92437 -0.418427 4.24572 0
258 Ne -0.963939 -0.919564 5.32089 1
259 Ne 1.1088 2.07535 0.0601606 0
260 Ne 0.0189643 1.9323 0.401837 1
261 Ne 2.56011 0.529639 4.66666 0
262 Ne 0.00067384 -3.07478 0.169312 0
263 Ne 1.29663 -1.97181 3.8599 0
264 Ne 1.3921 -2.97831 1.19391 0
265 Ne -0.777711 -2.98053 0.224915 0
266 Ne 0.909296 -3.06525 1.5246 0
267 Ne -1.68277 -0.664178 0.581757 1
268 Ne 0.93535 2.82167 0.789644 0
269 Ne 2.91442 1.13481 2.68505 0
270 Ne 1.01254 -3.0845 1.84726 0
271 Ne -0.890108 1.56152 3.12738 1
272 Ne -0.000816379 0.679119 4.29566 1
273 Ne -0.742905 -1.2038 2.61825 1
274 Ne 1.03365 -1.12039 0.989639 1
275 Ne 0.709605 3.13531 1.51039 0
276 Ne -2.57507 -0.0282994 2.45147 0
277 Ne 3.03433 0.454536 2.92616 0
278 Ne 0.760726 -1.68515 4.66629 1
279 Ne 1.18203 1.55221 4.63558 0
280 Ne 1.65568 -1.0171 1.58797 0
281 Ne -1.82952 2.50499 5.0365 0
282 Ne 1.02249 -1.35247 2.36275 1
283 Ne 1.73511 1.99068 1.94411 0
284 Ne 2.59998 1.04419 5.2896 0
285 Ne -2.13814 -0.590508 0.406658 0
286 Ne 1.86183 0.585033 0.813899 1
287 Ne 0.105995 3.06311 4.11255 0
288 Ne -2.48763 0.874683 1.54699 0
289 Ne 0.0165576 -2.51636 2.99288 0
290 Ne -2.7455 1.14931 1.8812 0
291 Ne 2.88351 -0.0883162 1.90831 0
292 Ne 1.33043 -2.58198 1.99802 0
293 Ne 0.32542 -2.66415 3.10959 0
294 Ne -2.50052 0.225198 1.0108 0
295 Ne -0.11008 0.293801 1.7827 1
296 Ne -1.9889 2.2044 1.40495 0
297 Ne 3.03013 1.82495 2.69185 0
298 Ne 3.3081 0.825779 0.667461 0
299 Ne 1.49823 2.33437 3.55829 0
300 Ne 2.88437 0.0877017 1.23873 0
301 Ne -1.3419 -2.88833 1.48247 0
302 Ne 1.20245 -0.877601 5.06673 1
303 Ne -1.06282 0.38037 2.21863 1
304 Ne 2.33391 0.439428 1.4418 0
305 Ne 2.41751 1.55155 1.67769 0
306 Ne -2.16494 2.66114 2.29547 0
307 Ne -1.02777 -0.956578 3.08622 1
308 Ne -1.8427 -3.02518 4.42251 0
309 Ne -2.94179 -0.313123 3.1996 0
310 Ne -1.48045 1.19296 1.34732 1
311 Ne -2.68139 -1.24569 3.77316 0
312 Ne -1.41119 -0.99512 3.25867 1
313 Ne -2.20199 -0.765298 0.342552 0
314 Ne -1.58897 -1.07519 3.75011 1
315 Ne -0.577 0.756429 1.31239 1
316 Ne -3.2524 -0.656049 0.446582 0
317 Ne 1.95593 -1.84145 5.46081 0
318 Ne 2.00836 0.879478 2.61244 0
319 Ne 0.405274 0.234521 5.2498 1
320 Ne 2.22237 -2.22728 1.93646 0
321 Ne -1.41642 -2.51268 0.805501 0
322 Ne -2.46212 -2.45622 5.18278 0
323 Ne -0.712919 -1.23529 5.37321 1
324 Ne 3.42371 -0.180267 3.90716 0
325 Ne -0.0514045 0.0441641 3.29707 1
326 Ne -1.29078 -0.508788 4.63836 1
327 Ne 1.60572 1.65861 1.06752 0
328 Ne 2.74932 -1.72799 4.62997 0
329 Ne 1.05343 0.263862 2.41998 1
330 Ne -0.939595 -2.17626 2.50817 0
331 Ne 1.2772 2.65946 2.72722 0
332 Ne -2.84314 1.6912 1.48909 0
333 Ne 1.58282 -1.55137 0.747165 0
334 Ne -0.0576913 2.38305 1.50152 0
335 Ne 2.69685 1.99576 1.17704 0
336 Ne 0.32594 -1.12981 0.996594 1
337 Ne 3.47299 0.13696 1.15005 0
338 Ne -0.395396 0.180446 3.98602 1
339 Ne -3.35179 -0.791675 2.71639 0
340 Ne -2.56253 1.91595 5.02383 0
341 Ne -2.04728 0.0857028 3.09604 1
342 Ne -1.16904 0.688482 3.49025 1
343 Ne 2.00308 -1.43019 0.0107705 0
344 Ne -2.07732 -0.684498 3.74563 0
345 Ne -2.8665 -2.12458 0.386638 0
346 Ne 0.824309 1.3543 4.77898 1
347 Ne -2.42434 -1.01095 3.51939 0
348 Ne -1.94654 1.22089 2.3966 0
349 Ne -1.82499 -0.686548 4.93456 0
350 Ne 0.719697 -0.0444027 4.73277 1
351 Ne -1.14168 -0.186902 1.19153 1
352 Ne -1.30802 -2.36621 0.290017 0
353 Ne -0.66402 -0.189615 4.90392 1
354 Ne -0.814365 0.171995 5.50431 1
355 Ne 3.19537 -0.20991 2.81088 0
356 Ne 1.97277 0.374865 3.05651 1
357 Ne 0.45619 -0.806491 5.02937 1
358 Ne 1.97353 -1.26257 1.55735 0
359 Ne 1.33959 0.0526225 1.87445 1
360 Ne -2.76015 -0.180055 1.08812 0
361 Ne 1.42643 -2.05234 3.94707 0
362 Ne -2.85994 0.131126 3.27624 0
363 Ne -0.850637 2.54237 0.953813 0
364 Ne -0.450416 -2.93747 3.03929 0
365 Ne 2.66979 0.818195 2.3246 0
366 Ne -0.847483 -2.04205 4.10126 0
367 Ne -0.30187 2.47029 5.08669 0
368 Ne -2.93923 -0.470453 1.78 0
369 Ne -2.23777 2.64061 2.73446 0
370 Ne 0.945656 3.24728 3.56258 0
371 Ne 1.04632 3.11211 0.704886 0
372 Ne 0.411553 -2.23544 1.72118 0
373 Ne -0.133384 -2.58804 1.27726 0
374 Ne 1.77884 2.48085 3.16491 0
375 Ne -1.30214 2.85381 0.896913 0
376 Ne -1.53555 -3.11365 1.57103 0
377 Ne -1.55258 -1.41945 0.359172 1
378 Ne -1.79678 -1.64805 2.44594 0
379 Ne 1.87985 0.993508 3.62915 0
380 Ne -0.944739 -2.23114 1.8709 0
381 Ne -1.0102 -0.841789 2.82594 1
382 Ne 3.50981 -0.304063 4.03209 0
383 Ne -0.240571 3.11825 2.5048 0
384 Ne -2.13084 -0.149282 0.173914 1
385 Ne 2.82349 -0.865458 1.42334 0
386 Ne 2.39509 -0.992429 4.82328 0
387 Ne -3.09607 -1.29937 2.0436 0
388 Ne -1.05279 3.32206 1.18565 0
389 Ne -0.442698 -2.83311 0.830811 0
390 Ne 1.55887 -0.842066 4.78247 1
391 Ne -2.8519 -1.40881 4.99119 0
392 Ne 1.56409 0.408899 5.53709 1
393 Ne -1.34217 -0.318537 5.21861 1
394 Ne 0.319091 -1.03612 4.93511 1
395 Ne 1.27751 0.669849 0.732973 1
396 Ne 2.55783 -1.75175 2.11028 0
397 Ne -0.200652 -2.75075 2.29877 0
398 Ne 0.417523 -2.68992 2.278 0
399 Ne 1.79295 2.06564 1.80069 0
400 Ne 0.757637 -3.19504 1.71068 0
401 Ne 1.19277 2.1432 2.07383 0
402 Ne 1.14304 1.42212 0.885326 1
403 Ne 0.248107 1.13673 5.48328 1
404 Ne -0.748879 -0.80234 3.30188 1
405 Ne 1.86862 -0.587252 3.74802 1
406 Ne 0.802341 -0.650815 1.65768 1
407 Ne -2.03476 1.72109 0.334654 0
408 Ne 1.30427 -3.15285 4.38621 0
409 Ne -2.85402 -1.08611 1.0761 0
410 Ne 0.732908 -1.22072 5.39098 1
411 Ne 1.0355 1.20406 0.858976 1
412 Ne 3.0488 -1.26711 3.81938 0
413 Ne 1.2281 -1.79763 1.54014 0
414 Ne 2.51255 0.457045 2.12848 0
415 Ne 1.0366 -1.82139 4.58445 0
416 Ne -0.455054 -1.69558 2.71874 1
417 Ne 0.521137 3.54285 3.25495 0
418 Ne -0.13046 3.36375 2.84978 0
419 Ne 0.0873386 -0.899677 2.10224 1
420 Ne 3.00939 -1.16937 4.68431 0
421 Ne -1.00626 0.620292 2.50749 1
422 Ne 0.697512 1.4785 4.23531 1
423 Ne 2.49924 -0.030312 4.13177 0
424 Ne 1.74167 -2.918 0.00349966 0
425 Ne -1.39405 -0.993472 2.41037 1
426 Ne -1.64971 0.575744 2.57602 1
427 Ne -1.1824 -0.615328 0.7585 1
428 Ne -1.82281 0.0693377 1.97702 1
429 Ne 2.18238 2.37836 1.71289 0
430 Ne 1.78069 -2.341 5.01232 0
431 Ne 1.63607 0.559277 0.131975 1
432 Ne 1.30728 -2.90633 1.34822 0
433 Ne -0.602016 -2.07714 4.61902 0
434 Ne -0.546573 0.944019 0.710721 1
435 Ne 0.0461067 -2.68398 1.4463 0
436 Ne 0.514427 -1.2215 0.750434 1
437 Ne 0.125656 2.3002 4.89814 0
438 Ne 0.798775 -2.99444 3.09253 0
439 Ne -1.17574 3.38627 0.506056 0
440 Ne -0.938064 1.95523 3.35669 1
441 Ne -1.01397 0.683969 0.518963 1
442 Ne 0.155018 -1.01484 3.11144 1
443 Ne 1.26999 -3.26236 0.804077 0
444 Ne -0.885991 -1.24948 4.67728 1
445 Ne -3.42374 -0.353592 0.605214 0
446 Ne -2.86511 -0.239598 1.14057 0
447 Ne -0.653808 -1.34321 0.184856 1
448 Ne -2.63433 -2.40473 0.751568 0
449 Ne 1.19914 1.19874 4.05913 1
450 Ne 2.75962 -1.54086 3.6866 0
451 Ne -2.67366 -1.06441 4.61976 0
452 Ne 0.0644428 3.09035 1.78189 0
453 Ne 1.00098 -2.95768 2.03172 0
454 Ne 2.50814 -1.72997 1.27043 0
455 Ne 0.21593 0.334969 2.33977 1
456 Ne -0.0699407 -1.89251 4.47332 0
457 Ne 1.07797 2.30037 1.45125 0
458 Ne 0.661279 -2.6804 3.54786 0
459 Ne -2.05933 -0.70862 2.02289 0
460 Ne 2.78364 -0.986797 0.0808949 0
461 Ne -0.659382 -1.43364 5.23317 1
462 Ne 3.19675 1.44855 4.77828 0
463 Ne -0.580199 -2.60089 1.32582 0
464 Ne 0.0403213 0.879714 0.113502 1
465 Ne -0.460776 2.9431 3.31323 0
466 Ne -0.730064 -1.38243 2.71302 1
467 Ne 3.57838 0.284512 3.54481 0
468 Ne 1.46418 -1.13062 1.62942 1
469 Ne 0.465475 -3.161 4.26659 0
470 Ne 1.96238 -1.44518 0.0938084 0
471 Ne -2.54153 2.11609 0.499973 0
472 Ne 0.321026 2.68277 4.99421 0
473 Ne -1.30127 3.2146 1.96557 0
474 Ne 0.382951 -0.545487 0.93362 1
475 Ne -2.34575 2.14978 4.08667 0
476 Ne -1.50094 2.5736 0.348206 0
477 Ne 0.603578 -0.467098 0.834166 1
478 Ne 0.205437 -3.2136 5.377 0
479 Ne -0.416986 -2.68813 3.2254 0
480 Ne 0.0803772 -2.70103 2.61437 0
481 Ne -1.64153 1.24669 3.65176 1
482 Ne 1.17352 2.53035 0.641882 0
483 Ne -2.07615 -2.6628 3.94752 0
484 Ne 0.623554 -3.12444 0.556504 0
485 Ne -0.538946 -0.464223 4.79597 1
486 Ne 1.62091 -2.09791 1.93036 0
487 Ne 2.28918 -2.62896 3.9179 0
488 Ne -2.04931 2.102 1.22974 0
489 Ne 0.663289 2.30185 4.03655 0
490 Ne -3.06263 -0.756394 4.69687 0
491 Ne -1.5007 -0.627873 4.74326 1
492 Ne -2.36313 -1.86483 2.3556 0
493 Ne -1.9486 2.67589 4.71494 0
494 Ne -2.46835 0.868339 2.60265 0
495 Ne -2.8449 0.963137 4.21001 0
496 Ne -0.989332 -2.89733 1.31967 0
497 Ne -0.283534 1.04012 2.51218 1
498 Ne 2.6145 0.270067 5.11402 0
499 Ne -0.0172173 -1.37182 1.36527 1
500 Ne -0.523297 3.34818 0.961155 0
501 Ne 1.7026 2.75534 1.63618 0
502 Ne 1.48492 1.76959 1.48361 0
503 Ne -3.42374 -0.353592 0.605214 0
504 Ne 0.0701488 -1.80957 2.2491 1
505 Ne 0.493319 -3.18562 1.60806 0
506 Ne -2.82014 -0.563988 5.44765 0
507 Ne -0.192422 -1.23968 3.91358 1
508 Ne 2.88087 -1.19435 2.89831 0
509 Ne 0.480617 -0.665031 0.634245 1
510 Ne -2.43408 0.808636 0.576396 0
511 Ne 2.9256 1.68273 2.81033 0
512 Ne 2.5082 -0.604998 1.38395 0
513 Ne -1.48294 2.58092 0.840411 0
514 Ne -3.06427 0.470774 2.40002 0
515 Ne -0.28476 2.03945 1.16414 0
516 Ne 0.268265 1.5304 5.10547 1
517 Ne -3.18941 -0.407986 0.75281 0
518 Ne -0.528818 -3.04719 2.37187 0
519 Ne -3.01941 -1.56389 5.01893 0
520 Ne -1.09282 0.227087 3.28944 1
521 Ne -0.360556 2.53516 1.83409 0
522 Ne -1.00178 -3.26237 0.675312 0
523 Ne 0.881189 -0.251298 4.97717 1
524 Ne 0.235454 -2.72622 3.6805 0
525 Ne -1.9999 -2.75465 1.65919 0
526 Ne -0.0450003 -0.320168 0.728398 1
527 Ne 0.894148 1.54248 0.716437 1
528 Ne -0.895709 1.02542 0.762407 1
529 Ne 2.44834 1.32654 0.286597 0
530 Ne 0.524916 2.25511 3.42322 0
531 Ne -2.07174 -0.573049 4.61516 0
532 Ne -0.149957 -0.32815 2.76762 1
533 Ne 1.18427 3.20192 4.19517 0
534 Ne 2.31541 -0.865564 0.0508589 0
535 Ne 0.663629 0.810656 4.55577 1
536 Ne -2.05354 2.90976 4.30704 0
537 Ne -3.00771 0.651248 3.95543 0
538 Ne 1.25959 1.90499 1.78027 0
539 Ne -0.798898 0.914626 2.87084 1
540 Ne 2.713 -0.25144 3.12634 0
541 Ne -0.475412 1.74909 2.26291 1
542 Ne 2.74504 -1.79163 1.58489 0
543 Ne 1.32856 1.97772 0.630284 0
544 Ne -0.340149 -0.0878788 2.02557 1
545 Ne 1.26773 1.91185 1.89438 0
546 Ne -0.218388 1.5563 2.13602 1
547 Ne 0.107154 0.931481 4.79115 1
548 Ne -1.84665 2.48891 2.13648 0
549 Ne 2.31091 2.58811 5.23713 0
550 Ne -0.50209 -0.231132 5.37762 1
551 Ne 3.28231 -0.604599 1.00766 0
552 Ne 0.773623 -0.916262 3.69226 1
553 Ne 2.42689 0.689305 3.04985 0
554 Ne 1.40868 2.05298 4.31133 0
555 Ne -0.181092 1.98711 0.179945 1
556 Ne -2.01694 -1.19152 0.68717 0
557 Ne 0.452027 1.20969 1.58492 1
558 Ne 2.13173 0.73778 3.92268 0
559 Ne 3.12857 0.316303 4.71596 0
560 Ne -0.891221 -2.7441 5.20574 0
561 Ne -2.13849 0.846986 3.47337 0
562 Ne 3.07493 -1.27422 0.412463 0
563 Ne -1.68735 1.52613 5.33843 0
564 Ne -2.03926 -1.84046 1.69515 0
565 Ne -0.703378 0.724579 4.93988 1
566 Ne 1.61877 -2.16841 4.29878 0
567 Ne -0.929556 0.950209 3.21342 1
568 Ne 1.62996 -1.30464 0.358465 1
569 Ne 2.49053 -2.51273 0.145606 0
570 Ne 2.31792 -2.00051 3.92214 0
571 Ne 1.90202 -0.784824 2.67556 0
572 Ne 2.92241 -1.53743 3.73057 0
573 Ne -2.436 -2.59441 2.0157 0
574 Ne 3.20432 -0.995852 4.87498 0
575 Ne 3.08565 -1.13015 2.15614 0
576 Ne -0.281988 -1.76626 2.88103 1
577 Ne 2.79912 0.0716747 4.50983 0
578 Ne -0.188632 -2.34265 0.256083 0
579 Ne 1.29253 1.06926 2.69275 1
580 Ne -1.7541 2.8151 4.43647 0
581 Ne -0.0362747 2.3304 1.9813 0
582 Ne -0.899125 1.21139 1.43414 1
583 Ne 2.84551 2.1685 2.41327 0
584 Ne 3.19701 -1.43708 5.10773 0
585 Ne -0.595721 2.91505 0.610723 0
586 Ne -0.547411 1.26861 4.61693 1
587 Ne -2.55324 -0.230122 1.80331 0
588 Ne 1.92578 2.57418 2.28961 0
589 Ne 0.890784 2.60239 1.49698 0
590 Ne 1.73232 -1.71945 4.29282 0
591 Ne 1.95169 -1.08864 1.58676 0
592 Ne -0.404447 -0.743886 0.233755 1
593 Ne 0.38636 -0.842639 2.91004 1
594 Ne -1.88313 1.47007 0.524858 0
595 Ne -2.36102 -2.50338 4.77229 0
596 Ne -1.73838 0.7258 4.11053 1
597 Ne -0.212773 2.33088 2.6533 0
598 Ne 1.42819 -1.12678 1.44842 1
599 Ne 1.15622 -0.24771 1.49931 1
600 Ne 1.75428 0.235909 1.02738 1
601 Ne -3.15935 0.8799 2.53836 0
602 Ne -3.51706 0.731244 2.4816 0
603 Ne 0.955157 -2.67824 3.71839 0
604 Ne 1.94182 -1.42624 1.26104 0
605 Ne 2.37931 0.334116 2.39226 0
606 Ne -0.684419 2.56449 4.4726 0
607 Ne -0.247337 -2.59362 1.06908 0
608 Ne 0.0280343 3.17247 0.0885028 0
609 Ne 0.785862 3.17453 4.54623 0
610 Ne 1.92615 1.61058 0.51818 0
611 Ne 1.17523 2.40865 0.203066 0
612 Ne 0.289909 -1.89824 2.34354 0
613 Ne 1.89045 -0.789075 3.09986 1
614 Ne -1.0028 1.15751 2.7036 1
615 Ne 2.29179 -1.9633 3.10698 0
616 Ne -0.76063 3.28802 4.19373 0
617 Ne -1.60724 1.48728 1.43006 0
618 Ne 0.52346 -0.613013 3.0043 1
619 Ne -1.8769 -1.92504 4.85591 0
620 Ne -0.656059 -3.17769 4.45104 0
621 Ne -0.936017 0.369159 1.27819 1
622 Ne -2.00434 1.90868 5.29698 0
623 Ne 0.777652 1.99345 4.51876 0
624 Ne -2.67802 -2.25189 4.97069 0
625 Ne 2.70654 -0.831307 5.43251 0
626 Ne -1.0551 0.540063 0.95663 1
627 Ne 0.591679 1.15092 0.499414 1
628 Ne 1.97735 -1.81545 3.86384 0
629 Ne -2.23116 -1.45161 5.52889 0
630 Ne 1.58831 -2.85661 1.66381 0
631 Ne -2.21964 -2.26381 0.369561 0
632 Ne -0.982234 1.19227 3.51444 1
633 Ne -1.27411 -1.2124 2.09437 1
634 Ne -1.23754 1.49434 4.16728 0
635 Ne -1.37611 -1.91925 2.1557 0
636 Ne 1.25705 2.40599 4.58514 0
637 Ne 0.841036 1.69654 4.13424 1
638 Ne 1.76583 -0.0756803 4.66869 1
639 Ne 3.17663 1.68657 2.58888 0
640 Ne 2.57763 -0.235869 5.05555 0
641 Ne 0.265545 -0.987876 2.75681 1
642 Ne 2.94639 -1.61505 2.69206 0
643 Ne 0.411802 1.94786 2.29046 0
644 Ne 2.54125 0.3463 4.84404 0
645 Ne -0.372217 0.9517 0.330389 1
646 Ne 0.0846837 -2.32155 1.59385 0
647 Ne -1.00743 2.454 4.94314 0
648 Ne -2.07388 -0.494055 1.25128 0
649 Ne 1.78347 1.107 3.14328 1
650 Ne 1.7688 -0.591912 4.43773 0
651 Ne -0.0989651 -0.105798 2.97679 1
652 Ne 0.919412 1.35935 3.5431 1
653 Ne -1.70381 -1.5497 0.130743 0
654 Ne 2.88614 1.01772 0.918303 0
655 Ne 0.588088 -1.60418 4.77786 1
656 Ne -0.57392 2.11941 4.71861 0
657 Ne -2.16633 0.871609 0.567913 0
658 Ne 1.66291 -1.84284 4.16155 0
659 Ne -2.46963 0.882004 2.0392 0
660 Ne 3.01542 -0.622624 0.586401 0
661 Ne 0.464396 0.311366 1.79968 1
662 Ne -2.02728 -2.06404 2.21967 0
663 Ne -1.22321 -2.43819 0.135706 0
664 Ne -0.77179 2.92487 0.242678 0
665 Ne 0.365968 2.01673 0.879569 1
666 Ne -2.19047 -1.65487 2.96513 0
667 Ne -2.41281 -1.76945 0.338133 0
668 Ne 3.06995 1.45976 0.15472 0
669 Ne -0.16238 -0.323648 0.0357287 1
670 Ne 2.78573 -1.81012 0.759354 0
671 Ne -3.58049 0.300335 3.18842 0
672 Ne 0.946641 -1.80429 4.10149 0
673 Ne 1.49863 1.8444 4.98678 0
674 Ne 1.71318 0.613296 0.664269 1
675 Ne 1.16395 0.150456 3.95361 1
676 Ne 2.23108 0.188248 5.16951 0
677 Ne 3.37834 0.503025 3.97544 0
678 Ne -0.528939 2.12669 4.74931 0
679 Ne 3.1946 1.32435 5.16862 0
680 Ne -2.69724 -1.3164 3.50656 0
681 Ne -0.424054 0.922873 4.26727 1
682 Ne 2.39457 -2.42117 4.16437 0
683 Ne 1.16596 -2.121 2.46424 0
684 Ne -0.802203 2.97006 2.97315 0
685 Ne -0.261547 3.38181 3.82634 0
686 Ne -0.7023 -2.74778 1.84279 0
687 Ne -2.45756 2.18404 3.97739 0
688 Ne 2.86732 1.51976 0.506543 0
689 Ne -1.9625 -0.508586 1.69674 0
690 Ne -2.39052 -1.43635 3.39575 0
691 Ne -1.86384 1.6099 2.74352 0
692 Ne 2.42215 0.255065 5.00215 0
693 Ne 2.41171 -2.32773 4.84649 0
694 Ne 3.01888 -0.157025 5.31979 0
695 Ne 2.25243 -0.932575 3.25503 0
696 Ne 0.719837 2.29755 3.85373 0
697 Ne 0.907672 -1.56484 3.82771 1
698 Ne 0.338732 -2.1249 1.92033 0
699 Ne 2.2461 0.527029 4.15443 0
700 Ne 0.821772 1.9258 5.10104 0
701 Ne 1.37119 -1.65295 0.103686 0
702 Ne 2.15522 -0.394642 1.58409 0
703 Ne 0.177002 1.27986 0.516798 1
704 Ne -2.93324 -0.609094 3.83522 0
705 Ne 0.0197563 0.844951 4.86666 1
706 Ne 0.782083 -2.73774 4.37795 0
707 Ne -1.31911 -1.5197 0.35449 1
708 Ne -2.40642 -2.26699 3.582 0
709 Ne -2.6149 0.166203 2.60743 0
710 Ne 1.9338 0.560614 0.80465 1
711 Ne 2.92212 0.901289 2.14255 0
712 Ne -0.0485549 -2.46161 1.92724 0
713 Ne 0.603404 -3.38704 0.694476 0
714 Ne 0.244374 3.18722 2.50797 0
715 Ne -1.93359 2.8836 3.9397 0
716 Ne -0.210853 -1.41238 3.19206 1
717 Ne -2.19801 1.18274 2.14891 0
718 Ne 0.0346121 -1.47407 3.23223 1
719 Ne 0.564605 -0.281349 4.14631 1
720 Ne 0.908713 1.53112 3.29782 1
721 Ne -0.621087 1.38791 1.6599 1
722 Ne 1.60058 1.78849 2.16848 0
723 Ne 2.29268 -1.34037 3.69596 0
724 Ne -0.628128 -1.75418 3.96033 1
725 Ne -0.321359 -1.08738 1.23776 1
726 Ne 0.0853552 1.76499 2.87211 1
727 Ne -0.197536 -0.793953 0.948942 1
728 Ne 1.999 1.94695 1.57759 0
729 Ne -2.51198 1.99659 0.807715 0
730 Ne -1.27194 -0.64129 2.96259 1
731 Ne 3.29858 -0.764543 4.57725 0
732 Ne -2.16559 -1.03219 0.297705 0
733 Ne -2.43919 1.25436 3.17576 0
734 Ne -2.33379 1.55925 1.41702 0
735 Ne 1.24791 -0.0438423 0.88295 1
736 Ne 0.82451 -2.45789 0.235198 0
737 Ne -2.95212 -0.998616 2.36138 0
738 Ne -1.71562 1.59382 5.30992 0
739 Ne 0.903392 -1.49741 0.542792 1
740 Ne 0.979308 0.0330076 3.05941 1
741 Ne 3.00423 -1.54009 2.54864 0
742 Ne 1.18923 0.152093 2.95451 1
743 Ne 0.81923 2.39898 2.45504 0
744 Ne 1.24758 1.70949 5.44807 0
745 Ne 0.407597 3.27866 4.99915 0
746 Ne -1.48553 2.36871 4.34754 0
747 Ne 1.5271 -2.00273 2.82761 0
748 Ne 1.05543 -2.13866 1.17045 0
749 Ne 0.274367 3.2868 5.02309 0
750 Ne -0.184208 0.00924464 0.444054 1
751 Ne 0.206258 3.38377 1.42936 0
752 Ne -2.16568 -2.55769 0.347778 0
753 Ne 0.0345534 -2.46143 4.31652 0
754 Ne -0.507619 0.442428 1.46418 1
755 Ne -0.790115 -2.66018 4.55542 0
756 Ne -1.7554 2.60477 4.63691 0
757 Ne -2.19122 0.141528 4.84319 0
758 Ne 1.37632 -1.86364 1.08817 0
759 Ne 3.11789 0.750209 3.99101 0
760 Ne -0.415533 0.138856 3.51866 1
761 Ne 0.517976 0.823299 1.84782 1
762 Ne 0.261189 -2.18967 0.823171 0
763 Ne -0.826323 0.788785 4.26029 1
764 Ne 0.585871 -2.85944 3.90805 0
765 Ne 0.672748 2.86728 3.41346 0
766 Ne 2.45801 -1.88748 3.03983 0
767 Ne -1.51412 -3.08764 5.53805 0
768 Ne 1.96978 0.575255 1.78906 0
769 Ne -0.76203 1.36742 2.70601 1
770 Ne 2.50911 0.180725 2.04343 0
771 Ne 0.0583408 1.33394 1.86427 1
772 Ne -1.88755 -0.85945 1.56376 0
773 Ne 2.93877 -0.118169 3.66416 0
774 Ne -1.27719 -2.53752 0.876994 0
775 Ne 0.365279 -2.35984 5.02623 0
776 Ne 0.361896 -1.61578 4.30837 1
777 Ne 2.15356 0.440388 2.7844 0
778 Ne 0.690582 0.216806 3.28631 1
779 Ne 0.180853 1.18821 0.802421 1
780 Ne -1.64592 -0.658291 4.72236 1
781 Ne -1.15146 1.07426 0.810864 1
782 Ne 0.195162 -3.12034 3.71661 0
783 Ne -0.91785 3.29642 1.91008 0
784 Ne -0.698881 -2.88964 1.13817 0
785 Ne 3.30765 0.47563 4.26392 0
786 Ne 1.64943 2.01771 2.52816 0
787 Ne -1.31442 -1.86866 2.61015 0
788 Ne 1.122 0.721367 2.17255 1
789 Ne -0.208258 -0.991729 2.79119 1
790 Ne -2.04822 -1.24498 1.86931 0
791 Ne 0.45619 -0.806491 5.02937 1
792 Ne 2.73358 0.0454617 3.45751 0
793 Ne -3.02275 -0.146165 1.70968 0
794 Ne 0.0569785 0.0377577 3.54931 1
795 Ne 2.15832 1.24631 4.29986 0
796 Ne -0.144307 1.0244 4.30363 1
797 Ne -0.00756653 2.42939 2.38027 0
798 Ne -0.21197 1.4283 3.29235 1
799 Ne 1.65356 -0.57645 4.95388 1
800 Ne -0.584151 2.973 2.16449 0
801 Ne -0.0618928 -3.43245 0.624275 0
802 Ne -1.77794 -1.83426 4.3561 0
803 Ne 3.39455 -0.604442 3.04983 0
804 Ne 0.335641 3.52538 4.54421 0
805 Ne 1.7107 2.12973 5.19922 0
806 Ne -2.08377 -1.19979 4.61799 0
807 Ne 0.841082 2.45929 1.32721 0
808 Ne 0.492497 -2.59889 5.0346 0
809 Ne 1.50315 -1.29343 1.29891 0
810 Ne -2.10695 -1.99088 1.03318 0
811 Ne 0.586342 -2.15648 3.41681 0
812 Ne -0.919215 1.9538 1.44109 0
813 Ne 1.36929 2.40615 1.06332 0
814 Ne -1.01778 1.33095 1.92982 1
815 Ne 0.500114 3.01779 5.29233 0
816 Ne -2.35328 -1.93762 2.73857 0
817 Ne 0.738033 -1.47458 2.15826 1
818 Ne -2.52534 0.561708 3.8798 0
819 Ne -0.847217 2.42999 4.66847 0
820 Ne 2.54813 0.884289 3.90232 0
821 Ne 0.86162 2.04714 0.879483 0
822 Ne -0.581646 1.86815 1.8137 0
823 Ne -2.04274 -2.80667 4.85313 0
824 Ne 2.25292 -0.0135747 4.52135 0
825 Ne -2.10122 0.809813 4.73702 0
826 Ne 1.9484 1.1292 2.20043 0
827 Ne -3.05907 1.47318 1.96848 0
828 Ne -3.09736 -1.28306 2.49433 0
829 Ne -0.606745 -2.35985 4.93056 0
830 Ne -0.822496 0.317502 3.59959 1
831 Ne 1.95054 1.1447 3.2768 0
832 Ne -0.925226 1.7229 1.47339 0
833 Ne 0.308554 1.86574 3.99043 1
834 Ne -0.547539 -0.888573 1.67021 1
835 Ne -0.109272 -0.534223 2.55804 1
836 Ne 0.888905 -0.168973 0.369076 1
837 Ne 2.12624 2.15482 2.84452 0
838 Ne -2.05211 -1.7929 1.84022 0
839 Ne -0.688925 -1.15687 0.0400483 1
840 Ne -1.05922 3.31899 0.269144 0
841 Ne -1.44221 3.14041 1.03361 0
842 Ne 1.05379 -1.02002 2.53593 1
843 Ne -1.09993 3.02164 5.16028 0
844 Ne -0.924155 -1.88054 4.18014 0
845 Ne 2.03675 2.83791 0.263504 0
846 Ne -0.0614216 -2.71276 0.504285 0
847 Ne 0.960001 -0.467064 1.27986 1
848 Ne 1.91229 -0.976022 0.927026 0
849 Ne -0.340101 0.728574 1.1966 1
850 Ne -2.78041 -2.28399 5.34177 0
851 Ne 0.929772 2.67878 3.26916 0
852 Ne 2.03475 -1.95957 1.51304 0
853 Ne 0.699928 -1.11281 4.80083 1
854 Ne -0.883603 2.87698 1.34582 0
855 Ne 1.21284 1.01136 1.74609 1
856 Ne -0.418929 0.661915 3.40613 1
857 Ne 0.642743 2.58293 4.72411 0
858 Ne -2.00803 -2.60915 5.31848 0
859 Ne 2.72582 -0.799615 5.30864 0
860 Ne -0.68497 0.504067 0.816899 1
861 Ne -1.22911 -0.806107 4.45682 1
862 Ne -1.40804 1.46229 5.14548 0
863 Ne -1.26113 1.02829 4.6562 1
864 Ne 0.25847 2.50986 1.62341 0
865 Ne 2.57672 -0.990431 2.95164 0
866 Ne -0.317023 -0.210446 1.41681 1
867 Ne -1.33612 0.621415 0.401199 1
868 Ne -1.75697 -2.1584 0.791586 0
869 Ne -1.86962 -1.98442 1.38653 0