ITEM: TIMESTEP
1000
ITEM: NUMBER OF ATOMS
1060
ITEM: BOX BOUNDS pp pp pp
-2.5000000000000000e+01 2.5000000000000000e+01
-2.5000000000000000e+01 2.5000000000000000e+01
0.0000000000000000e+00 5.5640000000000001e+00
ITEM: ATOMS id element x y z inside
1 Si -4.1173 2.8662 4.6368 2
2 O -4.0743 1.2332 4.6368 2
3 O -4.8543 3.3782 3.2468 2
4 Si -5.0153 -0.1017 4.6368 2
5 O -4.0213 -1.3978 4.6368 2
6 O -5.9123 -0.1197 3.2468 2
7 Si -3.9983 -3.0307 4.6368 2
8 O -2.4313 -3.4928 4.6368 2
9 O -4.7123 -3.5718 3.2458 2
10 Si -1.4523 -4.7998 4.6368 2
11 O 0.0877 -4.2547 4.6368 2
12 O -1.7123 -5.6597 3.2468 2
13 Si 1.6477 -4.7387 4.6368 2
14 O 2.5717 -3.3918 4.6368 2
15 O 1.9407 -5.5857 3.2448 2
16 Si 4.1187 -2.8668 4.6368 2
17 O 4.0767 -1.2337 4.6368 2
18 O 4.8547 -3.3788 3.2448 2
19 Si 5.0177 0.1013 4.6368 2
20 O 4.0227 1.3973 4.6368 2
21 O 5.9127 0.1202 3.2438 2
22 Si 3.9997 3.0303 4.6368 2
23 O 2.4337 3.4943 4.6368 2
24 O 4.7127 3.5713 3.2438 2
25 Si 1.4537 4.8012 4.6368 2
26 O -0.0863 4.2553 4.6368 2
27 O 1.7127 5.6593 3.2448 2
28 Si -1.6463 4.7382 4.6368 2
29 O -2.5703 3.3912 4.6368 2
30 O -1.9413 5.5862 3.2458 2
31 Si -4.1193 2.8662 1.8548 2
32 O -4.0743 1.2332 1.8548 2
33 O -4.8543 3.3792 0.4638 2
34 Si -5.0163 -0.1008 1.8548 2
35 O -4.0203 -1.3958 1.8548 2
36 O -5.9133 -0.1197 0.4638 2
37 Si -3.9973 -3.0297 1.8548 2
38 O -2.4313 -3.4928 1.8548 2
39 O -4.7133 -3.5728 0.4648 2
40 Si -1.4533 -4.8018 1.8548 2
41 O 0.0857 -4.2557 1.8548 2
42 O -1.7133 -5.6597 0.4628 2
43 Si 1.6457 -4.7378 1.8548 2
44 O 2.5717 -3.3927 1.8538 2
45 O 1.9417 -5.5857 0.4638 2
46 Si 4.1177 -2.8657 1.8548 2
47 O 4.0727 -1.2337 1.8538 2
48 O 4.8547 -3.3788 0.4638 2
49 Si 5.0147 0.1013 1.8538 2
50 O 4.0177 1.3953 1.8538 2
51 O 5.9137 0.1202 0.4638 2
52 Si 3.9957 3.0293 1.8548 2
53 O 2.4297 3.4912 1.8538 2
54 O 4.7127 3.5722 0.4648 2
55 Si 1.4527 4.8003 1.8548 2
56 O -0.0873 4.2553 1.8548 2
57 O 1.7127 5.6602 0.4638 2
58 Si -1.6473 4.7393 1.8548 2
59 O -2.5733 3.3942 1.8548 2
60 O -1.9413 5.5862 0.4628 2
61 Ne -3.18587 1.43069 0.930859 0
62 Ne -2.30441 -1.42908 3.28084 0
63 Ne -1.38161 -0.667707 4.82498 1
64 Ne 1.62217 -2.59663 0.951035 0
65 Ne -0.706413 0.108516 4.5014 1
66 Ne 2.07289 -1.73107 3.64623 0
67 Ne 3.24258 1.16911 3.09161 0
68 Ne -2.39339 0.640543 4.01941 0
69 Ne 1.69077 -1.56115 1.72233 0
70 Ne 0.282916 2.96987 0.472744 0
71 Ne -0.193822 -3.16028 2.42585 0
72 Ne 1.06577 -1.26614 5.20195 1
73 Ne 1.35187 -2.3712 2.13928 0
74 Ne -0.553364 2.00355 2.18822 0
75 Ne -2.67535 -0.567878 4.99941 0
76 Ne -0.994623 1.77476 1.80128 0
77 Ne 2.16253 -0.0265011 3.55185 0
78 Ne -1.12157 -0.548213 4.46768 1
79 Ne -0.966162 -2.29169 5.51173 0
80 Ne -2.82578 -1.6007 5.41004 0
81 Ne 0.0390736 1.50951 0.852997 1
82 Ne -1.44326 -0.140312 5.38926 1
83 Ne -2.8397 1.91922 3.0882 0
84 Ne 1.67543 -0.27766 1.97835 1
85 Ne 1.28866 0.972369 1.70918 1
86 Ne 1.59689 -2.59827 1.95014 0
87 Ne 0.474078 -2.57616 5.27593 0
88 Ne -2.06353 0.622177 4.73157 0
89 Ne -1.25823 -0.697606 0.409714 1
90 Ne -0.564649 -0.457736 0.0287533 1
91 Ne -2.92938 -0.502396 4.19325 0
92 Ne -2.63087 -1.8741 4.34215 0
93 Ne 1.76152 -0.586228 0.365042 1
94 Ne 1.94387 -3.02825 3.49355 0
95 Ne 1.88538 0.419405 2.89218 1
96 Ne 1.50266 -2.36289 4.451 0
97 Ne 0.847527 2.78046 5.19716 0
98 Ne -0.275425 0.525068 0.940427 1
99 Ne -0.749007 -2.9602 2.70063 0
100 Ne 1.97736 -1.68438 3.624 0
101 Ne -1.98407 -3.00261 2.78157 0
102 Ne -0.312091 3.49282 4.48159 0
103 Ne -3.45158 -0.349424 4.66467 0
104 Ne -2.18325 -2.69795 3.63999 0
105 Ne -2.18624 -2.53875 1.51501 0
106 Ne 2.75288 0.447879 5.48752 0
107 Ne -0.221115 -1.07524 3.17609 1
108 Ne 2.93187 -0.840929 2.86764 0
109 Ne 1.9921 1.22419 0.781076 0
110 Ne -0.760167 -3.32335 4.31358 0
111 Ne -2.66087 -1.9996 4.56796 0
112 Ne -0.812173 1.00525 0.328861 1
113 Ne -1.45991 0.879146 3.86765 1
114 Ne -0.0460492 -3.54933 1.50682 0
115 Ne 3.22326 0.531205 2.75075 0
116 Ne -1.40513 -0.0657059 0.680401 1
117 Ne -1.09114 -0.3684 3.01909 1
118 Ne 0.076617 -1.09745 3.94449 1
119 Ne 0.559948 0.638498 5.28097 1
120 Ne -2.07548 1.47744 1.63986 0
121 Ne 2.92167 0.470786 2.55147 0
122 Ne 0.913007 1.71252 0.300269 1
123 Ne -1.55812 -0.858422 3.78485 1
124 Ne -2.33827 -1.76643 0.647519 0
125 Ne 1.77727 -2.22861 1.29766 0
126 Ne -0.532378 1.92323 5.10026 0
127 Ne -1.14738 -2.48698 0.724326 0
128 Ne 2.35286 2.14827 1.21436 0
129 Ne 2.36391 0.670079 3.71709 0
130 Ne 2.46552 1.9743 0.619413 0
131 Ne -1.47776 3.23401 3.73198 0
132 Ne -0.88565 -2.72456 3.0811 0
133 Ne 2.85485 0.707812 4.16762 0
134 Ne -3.08574 -0.376534 3.0886 0
135 Ne -1.63127 0.862832 3.41832 1
136 Ne -2.68764 1.59381 5.21425 0
137 Ne 2.95815 1.67868 0.319923 0
138 Ne 0.0354074 -2.50771 4.11112 0
139 Ne -2.48218 -1.27068 1.92458 0
140 Ne -0.11494 -2.1998 2.73345 0
141 Ne 2.03328 2.1344 4.69658 0
142 Ne -1.59266 1.82781 0.970642 0
143 Ne -1.28715 2.93045 0.361507 0
144 Ne -0.235657 -0.694326 4.07118 1
145 Ne 1.81852 -0.132974 0.541903 1
146 Ne 0.747858 -1.95343 3.31295 1
147 Ne 2.58235 -0.0847874 3.22908 0
148 Ne -1.96531 2.67046 0.916039 0
149 Ne 0.913344 0.172078 1.01964 1
150 Ne -0.238625 -0.178094 4.30213 1
151 Ne 1.31721 -1.58047 1.17167 0
152 Ne -1.47605 3.22366 2.84064 0
153 Ne -2.04199 2.6743 0.757161 0
154 Ne -1.5316 -1.61252 2.11882 0
155 Ne 0.968285 1.95811 1.81525 0
156 Ne 2.52138 -2.33399 1.35987 0
157 Ne -2.91526 -0.732843 4.56726 0
158 Ne -0.475864 1.35623 1.93317 1
159 Ne -0.984743 2.23255 5.29905 0
160 Ne 1.08573 3.09174 3.18605 0
161 Ne -2.67117 -2.34559 1.03217 0
162 Ne -0.572611 2.53034 0.481633 0
163 Ne 2.71643 -0.0901866 5.43608 0
164 Ne -1.64444 2.65674 0.835845 0
165 Ne 2.24567 0.637541 3.97526 0
166 Ne -0.0297954 3.22858 5.55609 0
167 Ne -2.4053 2.09232 3.48171 0
168 Ne 1.66649 0.770421 4.99858 0
169 Ne -3.46181 0.619402 2.0815 0
170 Ne -0.267993 3.04611 0.308313 0
171 Ne 1.74241 2.30083 1.9512 0
172 Ne 0.485087 2.44961 3.57918 0
173 Ne 2.0694 -2.84063 3.28702 0
174 Ne 1.31948 0.42171 5.00922 1
175 Ne 0.620232 -1.35549 2.11594 1
176 Ne 1.66181 1.25046 2.50309 0
177 Ne -2.94212 1.30914 2.44055 0
178 Ne -1.75009 -1.80518 3.67563 0
179 Ne 0.328236 1.46742 5.05138 1
180 Ne 1.81021 -2.96111 2.08343 0
181 Ne -2.11695 2.76804 5.3028 0
182 Ne 0.427211 1.73018 1.50989 1
183 Ne 0.461998 3.20386 1.62074 0
184 Ne 3.00265 0.819372 0.921226 0
185 Ne 3.00401 1.97722 5.21599 0
186 Ne 0.601368 -1.61619 4.51122 1
187 Ne 2.41685 -2.40391 0.159591 0
188 Ne 0.42688 3.36524 5.53075 0
189 Ne -0.586025 0.279007 4.38269 1
190 Ne -3.2511 -0.496608 1.47789 0
191 Ne 2.65097 1.26654 5.49877 0
192 Ne 0.221055 0.0740116 1.47864 1
193 Ne 2.82658 0.790372 2.61444 0
194 Ne 0.0602005 -3.41054 1.49377 0
195 Ne 0.700675 -2.96291 0.944689 0
196 Ne 0.470587 3.55462 0.36012 0
197 Ne -2.66539 1.16415 5.5149 0
198 Ne 0.977464 -2.16037 2.95024 0
199 Ne -0.121069 2.78911 0.710339 0
200 Ne 0.985638 -1.58719 2.81269 1
201 Ne -1.20585 1.31428 2.34645 1
202 Ne 0.397173 0.88064 1.01772 1
203 Ne 1.8823 -0.905708 1.67481 0
204 Ne 0.809187 -0.797195 3.35086 1
205 Ne -0.96179 -0.799079 1.13872 1
206 Ne -0.116317 3.45511 4.40507 0
207 Ne -1.50669 -0.620302 2.92787 1
208 Ne -2.53611 -0.39882 2.96509 0
209 Ne 2.6363 -0.429381 1.07067 0
210 Ne 2.97867 0.893047 0.804392 0
211 Ne 2.05986 2.4532 0.134414 0
212 Ne 2.55144 -1.12314 4.19058 0
213 Ne 1.36259 -2.16791 5.2529 0
214 Ne -0.567591 0.497405 3.30784 1
215 Ne 0.921026 -0.31473 4.58138 1
216 Ne -0.943254 1.13759 5.52646 1
217 Ne -0.147276 1.54064 4.53458 1
218 Ne -0.795202 -1.76754 2.84935 1
219 Ne -0.0737837 -1.68337 0.0496885 1
220 Ne -0.55734 -0.0165088 5.36001 1
221 Ne 2.57668 -1.75318 0.194675 0
222 Ne -1.19205 2.83716 1.72157 0
223 Ne 2.54794 -2.32805 0.704748 0
224 Ne 1.42772 -1.91938 0.400537 0
225 Ne -0.552287 -1.48403 1.78854 1
226 Ne -2.72875 1.84013 5.09097 0
227 Ne 0.615319 2.46904 5.47932 0
228 Ne -2.919 1.13287 5.41772 0
229 Ne -2.61821 2.17363 2.31916 0
230 Ne -1.64789 2.32221 1.42662 0
231 Ne -2.71739 -1.53893 0.992551 0
232 Ne 0.680067 3.49046 1.70914 0
233 Ne -1.56487 0.873305 0.334172 1
234 Ne -2.59084 1.35195 1.99852 0
235 Ne -0.266733 2.62476 2.67508 0
236 Ne 1.25536 2.8592 4.11596 0
237 Ne -1.75899 -0.125415 4.12865 1
238 Ne 1.73083 1.98074 0.877095 0
239 Ne 2.75418 0.658204 5.28708 0
240 Ne -2.01361 -2.75204 2.234 0
241 Ne -0.0319558 2.91961 4.2082 0
242 Ne 3.55823 -0.109152 3.92262 0
243 Ne -1.6721 -1.46763 3.39424 0
244 Ne 2.59437 0.454384 0.94656 0
245 Ne -3.50387 -0.771733 0.221169 0
246 Ne -1.69245 2.20391 0.552202 0
247 Ne -3.47809 0.517207 4.55557 0
248 Ne 1.47195 -0.0778354 4.49815 1
249 Ne 1.30864 -1.74848 0.0789796 0
250 Ne -0.859272 1.42165 0.365308 1
251 Ne -0.206395 1.51749 4.39877 1
252 Ne 1.77026 2.40728 4.61682 0
253 Ne 2.02058 -2.46167 1.18774 0
254 Ne -2.60028 1.16395 2.84475 0
255 Ne -0.0875719 -3.02148 2.4128 0
256 Ne 1.15137 -2.50284 0.602365 0
257 Ne 3.58436 0.0148008 0.275871 0
258 Ne -0.222246 1.50331 3.75605 1
259 Ne 2.56313 0.877983 5.46106 0
260 Ne -2.3959 1.65653 1.94936 0
261 Ne -0.899755 -2.18599 4.09045 0
262 Ne 0.872202 -0.0970374 5.48027 1
263 Ne -0.503546 -3.09926 4.9587 0
264 Ne -0.911242 -0.849507 2.72644 1
265 Ne -0.391323 -3.36124 1.91654 0
266 Ne 2.19801 -1.23645 1.43702 0
267 Ne -2.00525 0.889616 0.753937 0
268 Ne 0.795086 -0.194276 5.56289 1
269 Ne -3.39763 -0.828074 2.90465 0
270 Ne -2.8892 -2.00332 0.730749 0
271 Ne 2.09784 0.0653199 5.43329 0
272 Ne -2.69729 -2.2074 4.19925 0
273 Ne 2.48682 -0.02581 1.39988 0
274 Ne 1.29506 0.465022 0.0145806 1
275 Ne -2.04541 2.78668 2.6065 0
276 Ne 0.125591 1.21158 3.9048 1
277 Ne 1.43365 -3.00555 3.52456 0
278 Ne -2.04726 0.550589 4.13513 0
279 Ne -1.5968 -2.99886 1.34588 0
280 Ne -1.00283 0.579531 1.68487 1
281 Ne 3.21553 0.237455 4.41114 0
282 Ne -2.43451 0.798108 2.93903 0
283 Ne 0.477344 1.92038 1.36471 0
284 Ne -0.373322 -3.22285 2.16891 0
285 Ne 1.83581 2.4872 2.08321 0
286 Ne -0.96768 0.996135 4.35759 1
287 Ne 0.581255 -1.24711 2.08199 1
288 Ne -2.03883 -1.80615 2.1643 0
289 Ne -0.667566 -2.17649 5.03532 0
290 Ne -2.74297 0.545069 4.76703 0
291 Ne -0.0515729 -2.78646 0.305238 0
292 Ne -2.83548 0.924497 3.11349 0
293 Ne 2.64916 -0.29516 2.8224 0
294 Ne -0.569726 0.619675 0.0609172 1
295 Ne -1.57362 -2.30498 5.47216 0
296 Ne 1.04166 -3.14375 0.130215 0
297 Ne 1.27156 1.4471 2.67133 1
298 Ne -2.20183 1.8388 4.54784 0
299 Ne -0.679749 1.85297 4.98045 0
300 Ne -1.91419 -2.20371 2.09387 0
301 Ne -0.795066 0.520711 5.55624 1
302 Ne -0.0355257 0.519969 1.47805 1
303 Ne 1.94713 1.41751 2.27783 0
304 Ne -1.26829 3.06009 3.77007 0
305 Ne 1.83913 0.610838 2.13164 0
306 Ne -2.26799 -1.22489 1.32147 0
307 Ne 3.40962 0.735563 2.94402 0
308 Ne -2.00856 2.97734 2.92134 0
309 Ne -0.974017 2.49372 3.34558 0
310 Ne 2.00489 0.229107 1.70481 0
311 Ne 1.60722 -1.85682 0.657474 0
312 Ne 1.29883 -0.943979 5.36116 1
313 Ne 2.65855 -0.993093 1.76972 0
314 Ne 2.24306 -0.0353324 0.130025 0
315 Ne 2.19974 -0.943126 5.31481 0
316 Ne 3.06006 0.82903 3.94873 0
317 Ne -0.229716 -1.6346 4.69882 1
318 Ne -2.45685 -0.244152 3.20277 0
319 Ne 0.818998 -1.4975 4.81988 1
320 Ne 3.26869 0.792449 1.77223 0
321 Ne -1.12649 3.12552 2.29422 0
322 Ne 3.41259 0.16563 0.735002 0
323 Ne 0.780627 1.59414 3.95903 1
324 Ne -0.698981 2.62956 3.86929 0
325 Ne -0.509509 -2.5137 4.16204 0
326 Ne -1.22231 -1.76156 2.70276 0
327 Ne -0.907324 0.204713 2.01567 1
328 Ne -1.10475 1.21342 5.52189 1
329 Ne -0.400163 -0.733951 1.30077 1
330 Ne -2.63765 -0.570744 1.1682 0
331 Ne -0.332671 3.19592 4.15042 0
332 Ne 2.41175 -1.69605 2.27929 0
333 Ne -1.66273 -2.29663 2.58139 0
334 Ne -0.0378245 -2.11564 5.33953 0
335 Ne 1.37982 -0.512672 4.27325 1
336 Ne 1.60874 2.0899 5.33176 0
337 Ne -0.266152 -2.01421 4.00342 0
338 Ne -2.83983 -0.237961 0.141469 0
339 Ne 1.47802 1.04689 1.41897 1
340 Ne 1.30707 0.677983 0.668429 1
341 Ne 0.481364 -2.51513 2.34211 0
342 Ne -3.57667 -0.35572 0.789494 0
343 Ne 3.13074 0.819967 3.07631 0
344 Ne -1.21264 2.30179 3.23809 0
345 Ne 3.05925 1.57783 3.49537 0
346 Ne -0.778732 1.45069 4.69633 1
347 Ne -2.81489 1.38594 3.94732 0
348 Ne 0.291798 1.04893 0.121356 1
349 Ne -0.495359 -2.29724 0.230613 0
350 Ne 3.18219 1.45992 2.19689 0
351 Ne 2.27805 -2.35389 4.40129 0
352 Ne -0.984776 1.66544 0.868437 1
353 Ne -2.3773 -2.5282 5.02846 0
354 Ne 0.164963 0.535805 1.28926 1
355 Ne -0.598882 0.1955 4.76759 1
356 Ne -1.62324 -0.999937 1.90622 0
357 Ne -2.92684 -1.05294 3.49316 0
358 Ne 0.598044 0.129827 3.08901 1
359 Ne 3.22961 -0.678375 5.37428 0
360 Ne -0.936993 -1.6482 0.499438 1
361 Ne 0.618686 1.45089 1.74709 1
362 Ne -0.942266 3.33973 2.47944 0
363 Ne 0.64833 2.88867 3.04696 0
364 Ne 3.0896 0.555753 4.44217 0
365 Ne -0.462465 3.35382 1.84535 0
366 Ne 2.58461 2.01183 4.04723 0
367 Ne 1.95918 2.27253 1.49371 0
368 Ne -0.929669 -0.944837 5.35102 1
369 Ne -0.160234 -0.253146 3.23132 1
370 Ne -1.62047 2.28334 2.90289 0
371 Ne 0.541758 -2.67487 2.99699 0
372 Ne 1.89195 2.82016 3.43526 0
373 Ne -2.15868 -0.17836 0.854383 0
374 Ne 2.31985 1.80217 1.73723 0
375 Ne 1.44098 -2.19478 1.20429 0
376 Ne 0.401574 2.85031 5.54106 0
377 Ne -1.13606 0.718742 1.46898 1
378 Ne -0.80702 1.21509 5.02183 1
379 Ne 1.91274 -0.587048 0.833306 1
380 Ne -0.413879 -0.862406 2.11541 1
381 Ne 0.498833 3.07868 0.437173 0
382 Ne 1.22128 -1.20333 3.15129 1
383 Ne -1.02386 0.00984921 2.73225 1
384 Ne -0.175297 -1.40838 5.07536 1
385 Ne -0.112304 -1.09377 1.74344 1
386 Ne 2.77651 1.62298 0.213494 0
387 Ne -1.30483 0.985023 4.69395 1
388 Ne -0.291285 0.368147 4.83116 1
389 Ne 0.0668003 -0.487529 2.54997 1
390 Ne -1.09129 -2.84143 4.13797 0
391 Ne 1.32895 1.30298 0.320532 1
392 Ne -1.08377 1.12725 4.6508 1
393 Ne -3.23742 -0.983155 2.86982 0
394 Ne -1.90705 2.64865 1.4816 0
395 Ne -0.0885144 2.73913 2.65278 0
396 Ne -2.28606 -2.59711 0.226656 0
397 Ne -1.74169 2.67953 1.8442 0
398 Ne -2.37127 -1.98146 0.930555 0
399 Ne 0.514952 0.392008 3.14757 1
400 Ne -0.455801 0.155415 1.5929 1
401 Ne 1.22079 -2.10779 1.53305 0
402 Ne -1.75311 -2.18277 1.38945 0
403 Ne 1.74016 0.466356 0.653377 1
404 Ne -2.56295 2.14378 4.07501 0
405 Ne -2.37754 0.673268 0.633411 0
406 Ne -2.79645 1.74341 0.843063 0
407 Ne 0.736336 -1.20603 1.41459 1
408 Ne 1.3911 1.88849 4.48076 0
409 Ne 1.65575 0.179436 1.99634 1
410 Ne 2.53995 0.0822733 3.0664 0
411 Ne -0.64212 0.687155 2.94712 1
412 Ne 1.6053 1.88644 0.118704 0
413 Ne 3.14989 -1.36796 1.43083 0
414 Ne -2.94093 -0.16883 2.21969 0
415 Ne 0.300793 1.02574 4.94242 1
416 Ne -2.32711 -1.40328 4.59857 0
417 Ne -3.26217 0.660389 0.280518 0
418 Ne 0.186876 1.62107 3.1706 1
419 Ne -0.884466 2.783 4.90322 0
420 Ne -1.07192 -1.36042 4.85933 1
421 Ne 0.807377 -2.42026 4.87725 0
422 Ne 2.56213 -1.4209 3.77655 0
423 Ne 2.97215 -0.694468 2.2274 0
424 Ne 1.33608 -1.3068 0.187933 1
425 Ne 2.08721 1.26198 1.9013 0
426 Ne -1.39195 -1.6713 1.03332 0
427 Ne 0.279677 -1.06353 4.99089 1
428 Ne -0.582069 1.96491 1.10472 0
429 Ne -1.56279 -0.265855 5.07823 1
430 Ne -1.01557 2.46844 3.27826 0
431 Ne -0.897055 -0.00136142 1.79181 1
432 Ne -0.191774 2.45365 0.347346 0
433 Ne 1.2285 -2.21024 0.750715 0
434 Ne -1.83091 0.73625 0.735274 1
435 Ne 0.972949 1.16223 2.81234 1
436 Ne 0.0476646 1.89892 0.899487 1
437 Ne 1.56477 -2.45251 3.30183 0
438 Ne 2.32245 2.27652 3.31443 0
439 Ne 1.63945 -0.161232 0.754108 1
440 Ne 0.600867 -2.8365 1.39457 0
441 Ne 0.036926 1.41472 4.93074 1
442 Ne 1.25428 -0.949753 2.71161 1
443 Ne -0.953311 -2.30471 3.32281 0
444 Ne 0.630411 -3.08706 1.94215 0
445 Ne 2.35482 -0.885936 2.53202 0
446 Ne -0.236324 2.4965 0.57501 0
447 Ne -2.87121 -2.01815 2.92359 0
448 Ne 2.78192 -1.15406 3.15828 0
449 Ne 0.52229 1.33385 0.587462 1
450 Ne 1.0837 -2.32214 5.03725 0
451 Ne -1.38884 0.100728 3.50925 1
452 Ne 3.40915 0.0158723 3.06401 0
453 Ne 1.65187 -0.243102 0.139903 1
454 Ne -2.51902 -1.1455 3.10815 0
455 Ne 3.04427 1.87073 1.94325 0
456 Ne 0.186838 0.989387 0.173805 1
457 Ne -0.549319 -2.00336 0.252397 1
458 Ne 2.13983 0.0723897 2.66908 0
459 Ne 0.434592 3.3827 4.26109 0
460 Ne -2.71459 2.24136 2.89777 0
461 Ne -1.01818 1.80931 5.52683 0
462 Ne 0.864034 -0.583212 0.578757 1
463 Ne 1.18569 -1.63057 1.37746 0
464 Ne 0.321489 3.27139 5.11406 0
465 Ne -2.22095 -2.65891 4.39576 0
466 Ne -1.97269 1.02915 4.70822 0
467 Ne 2.44256 -2.36797 5.19363 0
468 Ne 2.46099 -2.14157 2.32921 0
469 Ne 1.2545 2.82546 5.52507 0
470 Ne -1.80276 -1.37834 0.150883 0
471 Ne 1.54093 0.037278 2.88311 1
472 Ne -0.202982 1.27404 2.78926 1
473 Ne -0.451524 0.0342805 2.89975 1
474 Ne -3.19073 -1.00921 3.85968 0
475 Ne 0.855371 -2.18071 0.317274 0
476 Ne -2.01163 1.7833 1.46413 0
477 Ne 0.0595289 -0.297074 0.21551 1
478 Ne 2.39114 -2.49356 4.27548 0
479 Ne 2.16166 -0.109204 3.2565 0
480 Ne -0.17486 -1.26667 3.93664 1
481 Ne -1.03268 2.95298 3.61488 0
482 Ne 2.67233 0.213955 5.21044 0
483 Ne 1.86316 1.31293 1.58485 0
484 Ne -1.52211 -0.466068 3.08778 1
485 Ne 1.56738 -1.84709 4.63919 0
486 Ne -2.41142 0.0200793 2.06569 0
487 Ne 0.714032 -1.67071 3.13793 1
488 Ne 0.157844 3.27671 1.9139 0
489 Ne 1.47393 -2.90315 3.64909 0
490 Ne 1.55397 3.15528 4.95432 0
491 Ne 3.09686 0.0494574 5.27823 0
492 Ne 1.25542 -3.28627 1.88016 0
493 Ne 2.38706 0.863352 4.60673 0
494 Ne -0.620884 -2.39154 5.03622 0
495 Ne -2.95932 0.345546 0.609334 0
496 Ne -1.99683 -1.56061 3.1164 0
497 Ne -2.01913 -1.89371 0.0587831 0
498 Ne -0.159182 3.02758 4.43966 0
499 Ne -1.06113 0.0470221 1.46861 1
500 Ne -2.09313 -0.0210771 1.66687 0
501 Ne -0.413555 -2.61574 3.11429 0
502 Ne 0.586592 2.04356 4.35734 0
503 Ne 0.447894 -3.44839 5.08191 0
504 Ne 3.29053 0.775397 2.8623 0
505 Ne -0.0525516 2.36479 3.60742 0
506 Ne 0.767076 -2.94545 5.1532 0
507 Ne 3.31712 1.26297 3.61752 0
508 Ne -1.47962 0.889332 2.62707 1
509 Ne -0.223871 2.99261 0.979534 0
510 Ne -0.992639 -0.889907 1.03141 1
511 Ne 2.63923 -1.65765 0.219382 0
512 Ne -0.772499 -1.79335 1.53162 0
513 Ne 0.477197 -0.55265 2.48359 1
514 Ne -1.01698 0.494137 5.37646 1
515 Ne -0.497648 2.4366 1.5 0
516 Ne -2.33347 -0.156956 0.654358 0
517 Ne 2.99882 1.08774 3.43153 0
518 Ne 1.44625 -0.0364112 2.81021 1
519 Ne 1.23806 0.0654697 1.81579 1
520 Ne -0.279129 3.07617 1.20175 0
521 Ne -1.61387 -1.88264 4.6793 0
522 Ne 0.840584 1.29269 0.188633 1
523 Ne -0.192724 0.883196 0.827161 1
524 Ne -3.41907 -1.03885 2.76339 0
525 Ne 0.497208 -2.63201 3.22465 0
526 Ne 1.96245 -0.366584 4.34917 0
527 Ne 3.10408 -0.903749 4.85572 0
528 Ne -0.395233 2.91561 2.38748 0
529 Ne 1.01572 0.0819563 4.51296 1
530 Ne 2.65481 0.926325 4.59824 0
531 Ne 2.40101 -2.15596 4.60121 0
532 Ne 0.496823 -1.90357 5.51248 1
533 Ne 1.96235 -2.02316 4.63908 0
534 Ne -2.78166 -1.78527 0.757099 0
535 Ne -1.3367 -1.93962 4.63686 0
536 Ne -1.65035 -2.96043 5.35712 0
537 Ne -3.26782 -0.592764 4.49022 0
538 Ne -0.0919426 2.72045 4.74196 0
539 Ne 0.306155 -2.45247 3.85499 0
540 Ne 2.24965 2.7029 5.01198 0
541 Ne -0.813354 2.76734 1.73779 0
542 Ne 2.30936 -1.70341 1.23204 0
543 Ne -0.342748 -0.562231 0.448369 1
544 Ne 0.579622 0.111133 5.1093 1
545 Ne -0.206735 3.00874 4.61143 0
546 Ne -1.56346 2.97868 3.56013 0
547 Ne -0.969706 2.95175 4.34856 0
548 Ne 1.4377 0.205858 0.196519 1
549 Ne -1.00427 -2.02645 0.786275 0
550 Ne 2.297 -0.645053 4.17384 0
551 Ne -2.61142 1.00134 5.25328 0
552 Ne 2.80696 2.12641 1.11022 0
553 Ne -0.746967 2.52266 0.861964 0
554 Ne 2.56432 -0.72379 5.30408 0
555 Ne 1.5273 1.40226 4.51009 0
556 Ne 1.87511 0.503257 1.41645 0
557 Ne 1.92307 0.231769 2.88674 1
558 Ne 2.33306 0.579251 3.60978 0
559 Ne 2.14395 -2.70226 3.33917 0
560 Ne 0.426075 -2.95754 3.82338 0
561 Ne -0.19186 1.00551 3.74351 1
562 Ne -2.80257 -0.457088 2.87669 0
563 Ne -1.73705 1.43674 1.58273 0
564 Ne 0.3369 3.08543 4.64382 0
565 Ne -1.298 0.575489 4.82103 1
566 Ne -2.11294 -1.72117 4.30212 0
567 Ne 2.68639 -1.05384 2.9185 0
568 Ne -1.10522 0.54743 2.05595 1
569 Ne -0.945856 0.602553 0.242536 1
570 Ne 0.102249 -2.30724 3.9382 0
571 Ne -3.31743 0.712274 0.924283 0
572 Ne -1.33623 -1.21993 4.51687 1
573 Ne -2.07743 -2.55729 0.0823579 0
574 Ne -1.85102 1.03084 4.46564 0
575 Ne -0.916515 -3.06158 4.70645 0
576 Ne 0.711048 -1.41329 2.51725 1
577 Ne 3.43442 -0.167262 0.326677 0
578 Ne 1.86474 -0.878721 1.65175 0
579 Ne -1.11822 -1.87803 3.31989 0
580 Ne -0.25 3.05343 0.800518 0
581 Ne 0.607163 2.18516 1.80556 0
582 Ne 2.00581 1.22158 0.20627 0
583 Ne 3.21072 -1.49486 0.21807 0
584 Ne -2.50664 -1.91275 3.08307 0
585 Ne 2.37752 -1.04281 1.45412 0
586 Ne 1.4789 1.48504 0.269726 0
587 Ne 2.29918 -0.127639 3.06399 0
588 Ne -0.672114 0.587574 0.432001 1
589 Ne 1.6799 2.83698 4.92329 0
590 Ne 0.681713 2.34348 4.9979 0
591 Ne -0.613124 -1.56918 3.13096 1
592 Ne -1.65846 -2.57036 2.75134 0
593 Ne -1.97193 -0.568389 3.92545 0
594 Ne 1.28316 2.08304 5.24383 0
595 Ne 0.905862 -3.18024 4.73726 0
596 Ne 1.27205 2.6137 3.8099 0
597 Ne -1.17991 -1.98232 0.887372 0
598 Ne -1.96282 1.24976 4.63084 0
599 Ne 1.73872 -2.16369 4.39162 0
600 Ne 3.22495 0.187038 0.580482 0
601 Ne -1.1675 -2.24896 4.09893 0
602 Ne -2.19294 -0.0257363 2.35658 0
603 Ne -0.894438 0.788832 4.86741 1
604 Ne -2.08292 -1.30574 2.75164 0
605 Ne -1.29003 -2.32671 1.38356 0
606 Ne -0.107612 -1.44273 3.9991 1
607 Ne -1.22096 -0.734779 1.67336 1
608 Ne 0.454505 -0.342074 5.53956 1
609 Ne 0.814971 2.81668 2.72491 0
610 Ne 0.952882 2.29199 3.88065 0
611 Ne 2.65014 1.75613 4.63465 0
612 Ne -2.55974 -1.57392 2.67511 0
613 Ne -0.00898477 0.192944 4.95814 1
614 Ne -0.115868 -3.40071 1.12573 0
615 Ne 1.67415 -0.0947767 1.45928 1
616 Ne 0.781059 1.65662 3.1423 1
617 Ne -2.04521 -1.09589 2.00928 0
618 Ne -1.38421 -1.14206 3.24778 1
619 Ne 1.84899 0.763666 0.719127 1
620 Ne -3.16202 -0.857816 0.531561 0
621 Ne 1.68757 2.22102 0.224661 0
622 Ne -2.68296 1.06007 0.167672 0
623 Ne 1.76498 0.0641427 1.27266 1
624 Ne 1.58243 -0.957712 5.04699 1
625 Ne -0.760261 2.29744 2.38558 0
626 Ne 2.5824 0.862735 2.16028 0
627 Ne -0.68629 -0.0758007 3.10487 1
628 Ne -2.77094 -1.58749 4.47885 0
629 Ne -0.675636 -1.01032 0.593181 1
630 Ne -0.9064 1.32825 0.277293 1
631 Ne -2.18177 0.575889 4.45994 0
632 Ne 2.85985 -1.69946 2.51188 0
633 Ne 1.02241 -2.78037 1.43049 0
634 Ne -3.22789 0.791938 0.698263 0
635 Ne 0.731637 -0.977034 4.47839 1
636 Ne -2.20765 -2.43369 2.87214 0
637 Ne -0.171782 0.0584441 5.15401 1
638 Ne -1.28207 1.90674 2.30741 0
639 Ne -0.740959 2.69986 4.41559 0
640 Ne 1.47162 1.54443 3.7391 0
641 Ne -1.90133 -2.0665 3.68704 0
642 Ne 0.607624 2.74431 3.07012 0
643 Ne 2.10156 -2.35471 4.93213 0
644 Ne -1.45623 -2.01991 2.23846 0
645 Ne -1.55165 -0.122692 0.552395 1
646 Ne -2.42948 -1.13086 4.02493 0
647 Ne 0.540208 0.0778034 0.65007 1
648 Ne 1.79447 -1.13395 2.88904 0
649 Ne 0.00492397 3.55718 0.217593 0
650 Ne 0.874801 0.377315 1.49347 1
651 Ne 2.24471 -1.13143 2.18704 0
652 Ne 1.51057 0.989139 2.51449 1
653 Ne 2.06314 0.0571304 4.78416 0
654 Ne 0.245765 -2.22325 4.23553 0
655 Ne -1.93875 2.56658 3.7821 0
656 Ne 2.05423 1.3851 4.17773 0
657 Ne 1.85683 2.87211 4.86159 0
658 Ne -1.28244 2.89732 4.11556 0
659 Ne -0.127379 -2.46561 0.075168 0
660 Ne 3.24456 -1.54926 0.343675 0
661 Ne -0.621574 0.406076 2.25956 1
662 Ne -3.00681 1.40525 4.30458 0
663 Ne -1.5973 2.90166 4.84711 0
664 Ne 2.74892 -1.23802 3.20148 0
665 Ne -0.688179 -3.03193 0.23873 0
666 Ne -2.01773 -0.00483134 1.23618 0
667 Ne -2.54755 1.80782 2.75019 0
668 Ne -0.310284 -2.14548 1.59396 0
669 Ne 1.60836 2.89571 5.40168 0
670 Ne -2.2528 1.98599 2.25114 0
671 Ne 0.89922 0.387705 2.90218 1
672 Ne -2.16964 2.82533 3.86558 0
673 Ne 3.51542 0.41681 2.5713 0
674 Ne 1.89748 2.19822 4.50336 0
675 Ne -1.96789 2.45825 4.42317 0
676 Ne 2.96885 1.50692 0.565202 0
677 Ne 3.06122 -1.34943 2.91416 0
678 Ne -1.00714 0.200054 2.70539 1
679 Ne -2.80647 -1.05972 4.38775 0
680 Ne 2.03798 1.89227 3.58961 0
681 Ne 0.946347 0.449658 0.775244 1
682 Ne 1.12022 -0.527083 0.712265 1
683 Ne 2.46504 1.06983 4.56517 0
684 Ne 1.3196 2.50153 4.60985 0
685 Ne 0.981895 0.307769 5.15492 1
686 Ne -3.32907 -0.417903 5.48516 0
687 Ne 3.10758 0.378303 3.19614 0
688 Ne -1.30288 -2.30276 0.892476 0
689 Ne -0.9572 -2.85832 1.70621 0
690 Ne 3.41381 -0.964776 2.32287 0
691 Ne -2.6009 -2.09036 5.35887 0
692 Ne 1.47855 2.79147 3.57628 0
693 Ne -1.65347 2.04825 4.14598 0
694 Ne 3.1106 0.624823 0.158154 0
695 Ne -0.973469 -2.69838 3.70062 0
696 Ne 1.02399 2.27841 5.53864 0
697 Ne 2.03561 -1.96832 4.66923 0
698 Ne -1.55714 1.0867 1.05024 1
699 Ne -0.790573 -3.16439 4.67821 0
700 Ne -0.22704 0.141998 5.37623 1
701 Ne 3.12051 1.65468 0.15965 0
702 Ne 0.289716 2.05702 1.18113 0
703 Ne -1.23191 2.53105 4.20489 0
704 Ne -1.75214 -0.219108 0.190135 1
705 Ne 2.80027 -2.19103 5.42827 0
706 Ne 1.71143 -0.0008798 2.48309 1
707 Ne -2.53897 2.01246 1.05844 0
708 Ne 0.976442 2.25951 4.97852 0
709 Ne -0.23953 -0.985794 1.97491 1
710 Ne 1.82196 0.147854 3.53706 1
711 Ne 0.75703 0.997017 4.68778 1
712 Ne 1.97836 0.779897 0.0973169 0
713 Ne -0.247635 -0.393377 1.32876 1
714 Ne 2.11101 -1.78928 4.30904 0
715 Ne -2.12299 2.03456 4.3028 0
716 Ne 0.562829 -1.33917 2.64339 1
717 Ne 2.53433 -0.769669 4.76703 0
718 Ne -1.31276 -2.77999 0.841396 0
719 Ne 1.82566 -2.48061 5.49363 0
720 Ne 3.087 0.0276996 0.886905 0
721 Ne -1.28805 2.17645 0.0123549 0
722 Ne -2.21848 2.72719 3.26607 0
723 Ne -3.18208 0.327725 2.83736 0
724 Ne 3.10664 -1.0404 4.96271 0
725 Ne -2.19879 2.58593 4.74649 0
726 Ne -0.721002 -0.273326 2.63952 1
727 Ne -2.01722 1.37827 4.42332 0
728 Ne 1.15101 -1.38119 2.17068 1
729 Ne 1.97312 -0.93156 5.31396 0
730 Ne 0.948081 0.801694 5.00009 1
731 Ne 1.04904 -1.64112 3.49058 1
732 Ne 0.719403 2.20954 1.40652 0
733 Ne -1.49173 -1.09797 2.74176 1
734 Ne -1.7781 2.6978 5.53501 0
735 Ne 1.94839 0.996157 4.6446 0
736 Ne 1.45225 -0.0395872 0.507946 1
737 Ne -1.79112 -0.164429 3.74211 1
738 Ne -2.15011 -0.104788 4.96647 0
739 Ne -1.39728 2.36911 4.08212 0
740 Ne 1.99732 2.54244 1.84794 0
741 Ne -2.74983 0.376622 3.62122 0
742 Ne -1.84183 -2.90287 1.77486 0
743 Ne -0.542858 -1.42231 2.18763 1
744 Ne -0.10363 0.690079 1.9797 1
745 Ne -0.77569 2.18649 2.45185 0
746 Ne -1.82323 0.112398 4.85397 1
747 Ne 0.801686 2.7418 3.93037 0
748 Ne 2.61611 -1.40401 0.588307 0
749 Ne 0.771605 1.168 5.35672 1
750 Ne -2.79106 -1.34948 2.28945 0
751 Ne -0.205174 0.442872 1.66013 1
752 Ne -2.61163 -2.4192 1.87696 0
753 Ne -1.50109 -0.0304987 1.70692 1
754 Ne -1.67715 0.160942 1.04003 1
755 Ne 1.42101 0.593634 1.24211 1
756 Ne -0.596069 -2.92483 0.331344 0
757 Ne -0.49962 -1.91397 4.0081 0
758 Ne 0.648709 2.05125 4.13047 0
759 Ne 2.2183 1.3144 4.00594 0
760 Ne 3.05316 0.0575837 5.10713 0
761 Ne 3.1136 0.740274 2.924 0
762 Ne 0.969141 1.94936 4.97143 0
763 Ne -1.39722 3.31664 3.01332 0
764 Ne -0.443571 -3.09157 4.61743 0
765 Ne 2.05 2.30037 1.54692 0
766 Ne -2.98385 -1.63726 3.55613 0
767 Ne -1.30441 0.757191 0.0787638 1
768 Ne 0.826196 -2.9223 5.28901 0
769 Ne 1.61735 2.74145 4.89858 0
770 Ne -0.579625 -0.164834 4.04063 1
771 Ne 1.50829 -1.42332 0.197944 0
772 Ne 1.73946 3.07921 1.70248 0
773 Ne 0.346462 -1.82021 3.14393 1
774 Ne 1.38411 -0.437145 0.388221 1
775 Ne -1.2604 -1.13765 4.86566 1
776 Ne 1.44419 1.28752 5.36839 1
777 Ne -1.62376 -2.48238 4.83325 0
778 Ne 2.34899 1.9105 1.09616 0
779 Ne 2.86293 -0.254148 1.3373 0
780 Ne 0.723469 -1.46321 5.14088 1
781 Ne -0.815813 -2.56506 4.84555 0
782 Ne -0.0366097 -3.29974 4.94934 0
783 Ne -0.128434 1.40813 2.85881 1
784 Ne -0.541772 2.4364 4.41471 0
785 Ne 0.987999 2.09714 4.79215 0
786 Ne -0.54649 2.33845 0.900483 0
787 Ne -1.61666 1.5324 3.23235 0
788 Ne -2.96308 1.84476 4.12064 0
789 Ne -0.698997 2.36032 1.15655 0
790 Ne -0.116709 -3.12982 3.05387 0
791 Ne -2.84502 -1.0556 2.31124 0
792 Ne 1.4634 0.110732 5.47039 1
793 Ne -0.288761 -0.402889 0.19529 1
794 Ne 1.11074 -1.36722 5.52662 1
795 Ne -1.61175 -2.25905 1.05232 0
796 Ne 2.04184 1.99897 3.94764 0
797 Ne -0.900743 2.81188 1.57347 0
798 Ne -2.4383 1.87729 3.76475 0
799 Ne 1.43486 2.87927 3.3742 0
800 Ne 2.49704 -1.11866 1.11942 0
801 Ne -0.0271812 -3.23493 1.08962 0
802 Ne -0.904198 2.34628 2.40408 0
803 Ne -3.245 1.27648 1.03488 0
804 Ne -2.23065 -0.153941 0.863631 0
805 Ne -3.13153 0.345311 3.12373 0
806 Ne -1.20765 -0.247422 5.23407 1
807 Ne -1.29332 -0.0356174 1.99236 1
808 Ne 0.241775 2.71287 0.93077 0
809 Ne 1.06854 2.1814 3.04189 0
810 Ne 3.25363 -0.23904 2.82052 0
811 Ne -1.50033 -1.62651 3.9928 0
812 Ne 0.377998 2.61309 1.43944 0
813 Ne 2.09098 -0.0257584 2.06957 0
814 Ne 3.31148 0.0817155 1.38532 0
815 Ne 2.51328 -1.65519 4.31601 0
816 Ne 1.89161 -2.867 0.192529 0
817 Ne 1.68527 -0.49939 4.28439 1
818 Ne -0.675368 3.48882 2.66087 0
819 Ne 2.01167 -1.07425 4.87877 0
820 Ne 0.595721 -2.91584 0.271009 0
821 Ne 1.04681 -3.10605 0.105226 0
822 Ne -0.192007 -1.46751 4.86239 1
823 Ne -2.96136 1.98532 4.66591 0
824 Ne -0.902135 1.02235 5.4099 1
825 Ne 1.96947 2.51336 2.52841 0
826 Ne 1.38886 0.23878 4.92117 1
827 Ne 0.766255 -2.35871 3.01574 0
828 Ne -2.52638 -2.40318 4.16986 0
829 Ne 0.217129 -1.11128 2.42924 1
830 Ne 1.97281 1.00655 0.489306 0
831 Ne -1.06203 -0.706976 1.11946 1
832 Ne 2.4338 1.67009 0.0157275 0
833 Ne -0.7511 -2.13688 2.02217 0
834 Ne 2.93923 0.416751 1.80593 0
835 Ne 2.02988 2.66946 4.68169 0
836 Ne 3.11914 0.251484 3.01168 0
837 Ne 0.574923 0.32903 3.09348 1
838 Ne 0.849012 -1.05306 1.83367 1
839 Ne 2.28626 -1.28974 4.75753 0
840 Ne 0.00401133 2.61841 3.69421 0
841 Ne 1.10587 3.22327 3.28791 0
842 Ne -1.35072 0.0548022 2.36509 1
843 Ne -2.39634 1.43745 5.30598 0
844 Ne 1.94449 0.257778 1.28976 0
845 Ne -2.08249 -1.21774 5.19885 0
846 Ne 0.565585 1.78971 1.33913 1
847 Ne -1.03581 0.680341 3.4663 1
848 Ne -1.92852 1.70082 4.04294 0
849 Ne -2.77165 0.840585 3.78971 0
850 Ne 2.8642 -0.621803 0.118137 0
851 Ne -2.56894 2.22872 0.0417228 0
852 Ne 0.317028 0.286969 2.07914 1
853 Ne -0.829023 -1.39584 0.99493 1
854 Ne 1.84641 0.605154 0.640328 1
855 Ne -0.353595 -2.86349 1.32196 0
856 Ne -1.5835 -2.64257 5.14643 0
857 Ne 1.68601 -2.35 4.96936 0
858 Ne -2.0748 -1.63602 2.91812 0
859 Ne -0.509271 1.48483 2.9931 1
860 Ne 1.16041 -1.85727 0.362806 0
861 Ne -1.47631 -1.1181 2.91533 1
862 Ne 2.15186 0.766861 3.26952 0
863 Ne 0.799155 3.39974 3.02261 0
864 Ne -1.40667 2.93598 5.37464 0
865 Ne 0.503173 -3.16386 0.435382 0
866 Ne 3.56766 0.0867359 5.38707 0
867 Ne 1.22306 -0.0111714 2.3512 1
868 Ne 1.25556 -0.98376 0.575743 1