LAMMPS (14 May 2021)
OMP_NUM_THREADS environment is not set. Defaulting to 1 thread. (src/lammps/src/comm.cpp:98)
  using 1 OpenMP thread(s) per MPI task
Reading data file ...
  orthogonal box = (-25.000000 -25.000000 0.0000000) to (25.000000 25.000000 5.5640000)
  1 by 2 by 1 MPI processor grid
  reading atoms ...
  60 atoms
Finding 1-2 1-3 1-4 neighbors ...
  special bond factors lj:    0        0        0       
  special bond factors coul:  0        0        0       
     0 = max # of 1-2 neighbors
     0 = max # of 1-3 neighbors
     0 = max # of 1-4 neighbors
     1 = max # of special neighbors
  special bonds CPU = 0.001 seconds
  read_data CPU = 0.054 seconds
60 atoms in group NT
Created 1 atoms
  create_atoms CPU = 0.001 seconds
Created 1 atoms
  create_atoms CPU = 0.000 seconds
Created 1 atoms
  create_atoms CPU = 0.000 seconds
Created 1 atoms
  create_atoms CPU = 0.000 seconds
Created 1 atoms
  create_atoms CPU = 0.000 seconds
Created 1 atoms
  create_atoms CPU = 0.000 seconds
Created 1 atoms
  create_atoms CPU = 0.000 seconds
Created 1 atoms
  create_atoms CPU = 0.000 seconds
Created 1 atoms
  create_atoms CPU = 0.000 seconds
Created 1 atoms
  create_atoms CPU = 0.000 seconds
Created 1 atoms
  create_atoms CPU = 0.000 seconds
Created 1 atoms
  create_atoms CPU = 0.000 seconds
Created 1 atoms
  create_atoms CPU = 0.000 seconds
Created 1 atoms
  create_atoms CPU = 0.000 seconds
Created 1 atoms
  create_atoms CPU = 0.000 seconds
Created 1 atoms
  create_atoms CPU = 0.000 seconds
Created 1 atoms
  create_atoms CPU = 0.000 seconds
Created 1 atoms
  create_atoms CPU = 0.000 seconds
Created 1 atoms
  create_atoms CPU = 0.000 seconds
Created 1 atoms
  create_atoms CPU = 0.000 seconds
Created 1 atoms
  create_atoms CPU = 0.000 seconds
Created 1 atoms
  create_atoms CPU = 0.000 seconds
Created 1 atoms
  create_atoms CPU = 0.000 seconds
Created 1 atoms
  create_atoms CPU = 0.000 seconds
Created 1 atoms
  create_atoms CPU = 0.000 seconds
Created 1 atoms
  create_atoms CPU = 0.000 seconds
Created 1 atoms
  create_atoms CPU = 0.000 seconds
Created 1 atoms
  create_atoms CPU = 0.000 seconds
Created 1 atoms
  create_atoms CPU = 0.000 seconds
Created 1 atoms
  create_atoms CPU = 0.000 seconds
Created 1 atoms
  create_atoms CPU = 0.000 seconds
Created 1 atoms
  create_atoms CPU = 0.000 seconds
Created 1 atoms
  create_atoms CPU = 0.000 seconds
Created 1 atoms
  create_atoms CPU = 0.000 seconds
Created 1 atoms
  create_atoms CPU = 0.000 seconds
Created 1 atoms
  create_atoms CPU = 0.000 seconds
Created 1 atoms
  create_atoms CPU = 0.000 seconds
Created 1 atoms
  create_atoms CPU = 0.000 seconds
Created 1 atoms
  create_atoms CPU = 0.000 seconds
Created 1 atoms
  create_atoms CPU = 0.000 seconds
Created 1 atoms
  create_atoms CPU = 0.000 seconds
Created 1 atoms
  create_atoms CPU = 0.000 seconds
Created 1 atoms
  create_atoms CPU = 0.000 seconds
Created 1 atoms
  create_atoms CPU = 0.000 seconds
Created 1 atoms
  create_atoms CPU = 0.000 seconds
Created 1 atoms
  create_atoms CPU = 0.000 seconds
Created 1 atoms
  create_atoms CPU = 0.000 seconds
Created 1 atoms
  create_atoms CPU = 0.000 seconds
Created 1 atoms
  create_atoms CPU = 0.000 seconds
Created 1 atoms
  create_atoms CPU = 0.000 seconds
Created 1 atoms
  create_atoms CPU = 0.000 seconds
Created 1 atoms
  create_atoms CPU = 0.000 seconds
Created 1 atoms
  create_atoms CPU = 0.000 seconds
Created 1 atoms
  create_atoms CPU = 0.000 seconds
Created 1 atoms
  create_atoms CPU = 0.000 seconds
Created 1 atoms
  create_atoms CPU = 0.000 seconds
Created 1 atoms
  create_atoms CPU = 0.000 seconds
Created 1 atoms
  create_atoms CPU = 0.000 seconds
Created 1 atoms
  create_atoms CPU = 0.000 seconds
Created 1 atoms
  create_atoms CPU = 0.000 seconds
Created 1 atoms
  create_atoms CPU = 0.000 seconds
Created 1 atoms
  create_atoms CPU = 0.000 seconds
Created 1 atoms
  create_atoms CPU = 0.000 seconds
Created 1 atoms
  create_atoms CPU = 0.000 seconds
Created 1 atoms
  create_atoms CPU = 0.000 seconds
Created 1 atoms
  create_atoms CPU = 0.000 seconds
Created 1 atoms
  create_atoms CPU = 0.000 seconds
Created 1 atoms
  create_atoms CPU = 0.000 seconds
Created 1 atoms
  create_atoms CPU = 0.000 seconds
Created 1 atoms
  create_atoms CPU = 0.000 seconds
Created 1 atoms
  create_atoms CPU = 0.000 seconds
Created 1 atoms
  create_atoms CPU = 0.000 seconds
Created 1 atoms
  create_atoms CPU = 0.000 seconds
Created 1 atoms
  create_atoms CPU = 0.000 seconds
Created 1 atoms
  create_atoms CPU = 0.000 seconds
Created 1 atoms
  create_atoms CPU = 0.000 seconds
Created 1 atoms
  create_atoms CPU = 0.000 seconds
Created 1 atoms
  create_atoms CPU = 0.000 seconds
Created 1 atoms
  create_atoms CPU = 0.000 seconds
Created 1 atoms
  create_atoms CPU = 0.000 seconds
Created 1 atoms
  create_atoms CPU = 0.000 seconds
Created 1 atoms
  create_atoms CPU = 0.000 seconds
Created 1 atoms
  create_atoms CPU = 0.000 seconds
Created 1 atoms
  create_atoms CPU = 0.000 seconds
Created 1 atoms
  create_atoms CPU = 0.000 seconds
Created 1 atoms
  create_atoms CPU = 0.000 seconds
Created 1 atoms
  create_atoms CPU = 0.000 seconds
Created 1 atoms
  create_atoms CPU = 0.000 seconds
Created 1 atoms
  create_atoms CPU = 0.000 seconds
Created 1 atoms
  create_atoms CPU = 0.000 seconds
Created 1 atoms
  create_atoms CPU = 0.000 seconds
Created 1 atoms
  create_atoms CPU = 0.000 seconds
Created 1 atoms
  create_atoms CPU = 0.000 seconds
Created 1 atoms
  create_atoms CPU = 0.000 seconds
Created 1 atoms
  create_atoms CPU = 0.000 seconds
Created 1 atoms
  create_atoms CPU = 0.000 seconds
Created 1 atoms
  create_atoms CPU = 0.000 seconds
Created 1 atoms
  create_atoms CPU = 0.000 seconds
Created 1 atoms
  create_atoms CPU = 0.000 seconds
Created 1 atoms
  create_atoms CPU = 0.000 seconds
Created 1 atoms
  create_atoms CPU = 0.000 seconds
Created 1 atoms
  create_atoms CPU = 0.000 seconds
Created 1 atoms
  create_atoms CPU = 0.000 seconds
Created 1 atoms
  create_atoms CPU = 0.000 seconds
Created 1 atoms
  create_atoms CPU = 0.000 seconds
Created 1 atoms
  create_atoms CPU = 0.000 seconds
Created 1 atoms
  create_atoms CPU = 0.000 seconds
Created 1 atoms
  create_atoms CPU = 0.000 seconds
Created 1 atoms
  create_atoms CPU = 0.000 seconds
Created 1 atoms
  create_atoms CPU = 0.000 seconds
Created 1 atoms
  create_atoms CPU = 0.000 seconds
Created 1 atoms
  create_atoms CPU = 0.000 seconds
Created 1 atoms
  create_atoms CPU = 0.000 seconds
Created 1 atoms
  create_atoms CPU = 0.000 seconds
Created 1 atoms
  create_atoms CPU = 0.000 seconds
Created 1 atoms
  create_atoms CPU = 0.000 seconds
Created 1 atoms
  create_atoms CPU = 0.000 seconds
Created 1 atoms
  create_atoms CPU = 0.000 seconds
Created 1 atoms
  create_atoms CPU = 0.000 seconds
Created 1 atoms
  create_atoms CPU = 0.000 seconds
Created 1 atoms
  create_atoms CPU = 0.000 seconds
Created 1 atoms
  create_atoms CPU = 0.000 seconds
Created 1 atoms
  create_atoms CPU = 0.000 seconds
Created 1 atoms
  create_atoms CPU = 0.000 seconds
Created 1 atoms
  create_atoms CPU = 0.000 seconds
Created 1 atoms
  create_atoms CPU = 0.000 seconds
Created 1 atoms
  create_atoms CPU = 0.000 seconds
Created 1 atoms
  create_atoms CPU = 0.000 seconds
Created 1 atoms
  create_atoms CPU = 0.000 seconds
Created 1 atoms
  create_atoms CPU = 0.000 seconds
Created 1 atoms
  create_atoms CPU = 0.000 seconds
Created 1 atoms
  create_atoms CPU = 0.000 seconds
Created 1 atoms
  create_atoms CPU = 0.000 seconds
Created 1 atoms
  create_atoms CPU = 0.000 seconds
Created 1 atoms
  create_atoms CPU = 0.000 seconds
Created 1 atoms
  create_atoms CPU = 0.000 seconds
Created 1 atoms
  create_atoms CPU = 0.000 seconds
Created 1 atoms
  create_atoms CPU = 0.000 seconds
Created 1 atoms
  create_atoms CPU = 0.000 seconds
Created 1 atoms
  create_atoms CPU = 0.000 seconds
Created 1 atoms
  create_atoms CPU = 0.000 seconds
Created 1 atoms
  create_atoms CPU = 0.000 seconds
Created 1 atoms
  create_atoms CPU = 0.000 seconds
Created 1 atoms
  create_atoms CPU = 0.000 seconds
Created 1 atoms
  create_atoms CPU = 0.000 seconds
Created 1 atoms
  create_atoms CPU = 0.000 seconds
Created 1 atoms
  create_atoms CPU = 0.000 seconds
Created 1 atoms
  create_atoms CPU = 0.000 seconds
Created 1 atoms
  create_atoms CPU = 0.000 seconds
Created 1 atoms
  create_atoms CPU = 0.000 seconds
Created 1 atoms
  create_atoms CPU = 0.000 seconds
Created 1 atoms
  create_atoms CPU = 0.000 seconds
Created 1 atoms
  create_atoms CPU = 0.000 seconds
Created 1 atoms
  create_atoms CPU = 0.000 seconds
Created 1 atoms
  create_atoms CPU = 0.000 seconds
Created 1 atoms
  create_atoms CPU = 0.000 seconds
Created 1 atoms
  create_atoms CPU = 0.000 seconds
Created 1 atoms
  create_atoms CPU = 0.000 seconds
Created 1 atoms
  create_atoms CPU = 0.000 seconds
Created 1 atoms
  create_atoms CPU = 0.000 seconds
Created 1 atoms
  create_atoms CPU = 0.000 seconds
Created 1 atoms
  create_atoms CPU = 0.000 seconds
Created 1 atoms
  create_atoms CPU = 0.000 seconds
Created 1 atoms
  create_atoms CPU = 0.000 seconds
Created 1 atoms
  create_atoms CPU = 0.000 seconds
Created 1 atoms
  create_atoms CPU = 0.000 seconds
Created 1 atoms
  create_atoms CPU = 0.000 seconds
Created 1 atoms
  create_atoms CPU = 0.000 seconds
Created 1 atoms
  create_atoms CPU = 0.000 seconds
Created 1 atoms
  create_atoms CPU = 0.000 seconds
Created 1 atoms
  create_atoms CPU = 0.000 seconds
Created 1 atoms
  create_atoms CPU = 0.000 seconds
Created 1 atoms
  create_atoms CPU = 0.000 seconds
Created 1 atoms
  create_atoms CPU = 0.000 seconds
Created 1 atoms
  create_atoms CPU = 0.000 seconds
Created 1 atoms
  create_atoms CPU = 0.000 seconds
Created 1 atoms
  create_atoms CPU = 0.000 seconds
Created 1 atoms
  create_atoms CPU = 0.000 seconds
Created 1 atoms
  create_atoms CPU = 0.000 seconds
Created 1 atoms
  create_atoms CPU = 0.000 seconds
Created 1 atoms
  create_atoms CPU = 0.000 seconds
Created 1 atoms
  create_atoms CPU = 0.000 seconds
Created 1 atoms
  create_atoms CPU = 0.000 seconds
Created 1 atoms
  create_atoms CPU = 0.000 seconds
Created 1 atoms
  create_atoms CPU = 0.000 seconds
Created 1 atoms
  create_atoms CPU = 0.000 seconds
Created 1 atoms
  create_atoms CPU = 0.000 seconds
Created 1 atoms
  create_atoms CPU = 0.000 seconds
Created 1 atoms
  create_atoms CPU = 0.000 seconds
Created 1 atoms
  create_atoms CPU = 0.000 seconds
Created 1 atoms
  create_atoms CPU = 0.000 seconds
Created 1 atoms
  create_atoms CPU = 0.000 seconds
Created 1 atoms
  create_atoms CPU = 0.000 seconds
Created 1 atoms
  create_atoms CPU = 0.000 seconds
Created 1 atoms
  create_atoms CPU = 0.000 seconds
Created 1 atoms
  create_atoms CPU = 0.000 seconds
Created 1 atoms
  create_atoms CPU = 0.000 seconds
Created 1 atoms
  create_atoms CPU = 0.000 seconds
Created 1 atoms
  create_atoms CPU = 0.000 seconds
Created 1 atoms
  create_atoms CPU = 0.000 seconds
Created 1 atoms
  create_atoms CPU = 0.000 seconds
Created 1 atoms
  create_atoms CPU = 0.000 seconds
Created 1 atoms
  create_atoms CPU = 0.000 seconds
Created 1 atoms
  create_atoms CPU = 0.000 seconds
Created 1 atoms
  create_atoms CPU = 0.000 seconds
Created 1 atoms
  create_atoms CPU = 0.000 seconds
Created 1 atoms
  create_atoms CPU = 0.000 seconds
Created 1 atoms
  create_atoms CPU = 0.000 seconds
Created 1 atoms
  create_atoms CPU = 0.000 seconds
Created 1 atoms
  create_atoms CPU = 0.000 seconds
Created 1 atoms
  create_atoms CPU = 0.000 seconds
Created 1 atoms
  create_atoms CPU = 0.000 seconds
Created 1 atoms
  create_atoms CPU = 0.000 seconds
Created 1 atoms
  create_atoms CPU = 0.000 seconds
Created 1 atoms
  create_atoms CPU = 0.000 seconds
Created 1 atoms
  create_atoms CPU = 0.000 seconds
Created 1 atoms
  create_atoms CPU = 0.000 seconds
Created 1 atoms
  create_atoms CPU = 0.000 seconds
Created 1 atoms
  create_atoms CPU = 0.000 seconds
Created 1 atoms
  create_atoms CPU = 0.000 seconds
Created 1 atoms
  create_atoms CPU = 0.000 seconds
Created 1 atoms
  create_atoms CPU = 0.000 seconds
Created 1 atoms
  create_atoms CPU = 0.000 seconds
Created 1 atoms
  create_atoms CPU = 0.000 seconds
Created 1 atoms
  create_atoms CPU = 0.000 seconds
Created 1 atoms
  create_atoms CPU = 0.000 seconds
Created 1 atoms
  create_atoms CPU = 0.000 seconds
Created 1 atoms
  create_atoms CPU = 0.000 seconds
Created 1 atoms
  create_atoms CPU = 0.000 seconds
Created 1 atoms
  create_atoms CPU = 0.000 seconds
Created 1 atoms
  create_atoms CPU = 0.000 seconds
Created 1 atoms
  create_atoms CPU = 0.000 seconds
Created 1 atoms
  create_atoms CPU = 0.000 seconds
Created 1 atoms
  create_atoms CPU = 0.000 seconds
Created 1 atoms
  create_atoms CPU = 0.000 seconds
Created 1 atoms
  create_atoms CPU = 0.000 seconds
Created 1 atoms
  create_atoms CPU = 0.000 seconds
Created 1 atoms
  create_atoms CPU = 0.000 seconds
Created 1 atoms
  create_atoms CPU = 0.000 seconds
Created 1 atoms
  create_atoms CPU = 0.000 seconds
Created 1 atoms
  create_atoms CPU = 0.000 seconds
Created 1 atoms
  create_atoms CPU = 0.000 seconds
Created 1 atoms
  create_atoms CPU = 0.000 seconds
Created 1 atoms
  create_atoms CPU = 0.000 seconds
Created 1 atoms
  create_atoms CPU = 0.000 seconds
Created 1 atoms
  create_atoms CPU = 0.000 seconds
Created 1 atoms
  create_atoms CPU = 0.000 seconds
Created 1 atoms
  create_atoms CPU = 0.000 seconds
Created 1 atoms
  create_atoms CPU = 0.000 seconds
Created 1 atoms
  create_atoms CPU = 0.000 seconds
Created 1 atoms
  create_atoms CPU = 0.000 seconds
Created 1 atoms
  create_atoms CPU = 0.000 seconds
Created 1 atoms
  create_atoms CPU = 0.000 seconds
Created 1 atoms
  create_atoms CPU = 0.000 seconds
Created 1 atoms
  create_atoms CPU = 0.000 seconds
Created 1 atoms
  create_atoms CPU = 0.000 seconds
Created 1 atoms
  create_atoms CPU = 0.000 seconds
Created 1 atoms
  create_atoms CPU = 0.000 seconds
Created 1 atoms
  create_atoms CPU = 0.000 seconds
Created 1 atoms
  create_atoms CPU = 0.000 seconds
Created 1 atoms
  create_atoms CPU = 0.000 seconds
Created 1 atoms
  create_atoms CPU = 0.000 seconds
Created 1 atoms
  create_atoms CPU = 0.000 seconds
Created 1 atoms
  create_atoms CPU = 0.000 seconds
Created 1 atoms
  create_atoms CPU = 0.000 seconds
Created 1 atoms
  create_atoms CPU = 0.000 seconds
Created 1 atoms
  create_atoms CPU = 0.000 seconds
Created 1 atoms
  create_atoms CPU = 0.000 seconds
Created 1 atoms
  create_atoms CPU = 0.000 seconds
Created 1 atoms
  create_atoms CPU = 0.000 seconds
Created 1 atoms
  create_atoms CPU = 0.000 seconds
Created 1 atoms
  create_atoms CPU = 0.000 seconds
Created 1 atoms
  create_atoms CPU = 0.000 seconds
Created 1 atoms
  create_atoms CPU = 0.000 seconds
Created 1 atoms
  create_atoms CPU = 0.000 seconds
Created 1 atoms
  create_atoms CPU = 0.000 seconds
Created 1 atoms
  create_atoms CPU = 0.000 seconds
Created 1 atoms
  create_atoms CPU = 0.000 seconds
Created 1 atoms
  create_atoms CPU = 0.000 seconds
Created 1 atoms
  create_atoms CPU = 0.000 seconds
Created 1 atoms
  create_atoms CPU = 0.000 seconds
Created 1 atoms
  create_atoms CPU = 0.000 seconds
Created 1 atoms
  create_atoms CPU = 0.000 seconds
Created 1 atoms
  create_atoms CPU = 0.000 seconds
Created 1 atoms
  create_atoms CPU = 0.000 seconds
Created 1 atoms
  create_atoms CPU = 0.000 seconds
Created 1 atoms
  create_atoms CPU = 0.000 seconds
Created 1 atoms
  create_atoms CPU = 0.000 seconds
Created 1 atoms
  create_atoms CPU = 0.000 seconds
Created 1 atoms
  create_atoms CPU = 0.000 seconds
Created 1 atoms
  create_atoms CPU = 0.000 seconds
Created 1 atoms
  create_atoms CPU = 0.000 seconds
Created 1 atoms
  create_atoms CPU = 0.000 seconds
Created 1 atoms
  create_atoms CPU = 0.000 seconds
Created 1 atoms
  create_atoms CPU = 0.000 seconds
Created 1 atoms
  create_atoms CPU = 0.000 seconds
Created 1 atoms
  create_atoms CPU = 0.000 seconds
Created 1 atoms
  create_atoms CPU = 0.000 seconds
Created 1 atoms
  create_atoms CPU = 0.000 seconds
Created 1 atoms
  create_atoms CPU = 0.000 seconds
Created 1 atoms
  create_atoms CPU = 0.000 seconds
Created 1 atoms
  create_atoms CPU = 0.000 seconds
Created 1 atoms
  create_atoms CPU = 0.000 seconds
Created 1 atoms
  create_atoms CPU = 0.000 seconds
Created 1 atoms
  create_atoms CPU = 0.000 seconds
Created 1 atoms
  create_atoms CPU = 0.000 seconds
Created 1 atoms
  create_atoms CPU = 0.000 seconds
Created 1 atoms
  create_atoms CPU = 0.000 seconds
Created 1 atoms
  create_atoms CPU = 0.000 seconds
Created 1 atoms
  create_atoms CPU = 0.000 seconds
Created 1 atoms
  create_atoms CPU = 0.000 seconds
Created 1 atoms
  create_atoms CPU = 0.000 seconds
Created 1 atoms
  create_atoms CPU = 0.000 seconds
Created 1 atoms
  create_atoms CPU = 0.000 seconds
Created 1 atoms
  create_atoms CPU = 0.000 seconds
Created 1 atoms
  create_atoms CPU = 0.000 seconds
Created 1 atoms
  create_atoms CPU = 0.000 seconds
Created 1 atoms
  create_atoms CPU = 0.000 seconds
Created 1 atoms
  create_atoms CPU = 0.000 seconds
Created 1 atoms
  create_atoms CPU = 0.000 seconds
Created 1 atoms
  create_atoms CPU = 0.000 seconds
Created 1 atoms
  create_atoms CPU = 0.000 seconds
Created 1 atoms
  create_atoms CPU = 0.000 seconds
Created 1 atoms
  create_atoms CPU = 0.000 seconds
Created 1 atoms
  create_atoms CPU = 0.000 seconds
Created 1 atoms
  create_atoms CPU = 0.000 seconds
Created 1 atoms
  create_atoms CPU = 0.000 seconds
Created 1 atoms
  create_atoms CPU = 0.000 seconds
Created 1 atoms
  create_atoms CPU = 0.000 seconds
Created 1 atoms
  create_atoms CPU = 0.000 seconds
Created 1 atoms
  create_atoms CPU = 0.000 seconds
Created 1 atoms
  create_atoms CPU = 0.000 seconds
Created 1 atoms
  create_atoms CPU = 0.000 seconds
Created 1 atoms
  create_atoms CPU = 0.000 seconds
Created 1 atoms
  create_atoms CPU = 0.000 seconds
Created 1 atoms
  create_atoms CPU = 0.000 seconds
Created 1 atoms
  create_atoms CPU = 0.000 seconds
Created 1 atoms
  create_atoms CPU = 0.000 seconds
Created 1 atoms
  create_atoms CPU = 0.000 seconds
Created 1 atoms
  create_atoms CPU = 0.000 seconds
Created 1 atoms
  create_atoms CPU = 0.000 seconds
Created 1 atoms
  create_atoms CPU = 0.000 seconds
Created 1 atoms
  create_atoms CPU = 0.000 seconds
Created 1 atoms
  create_atoms CPU = 0.000 seconds
Created 1 atoms
  create_atoms CPU = 0.000 seconds
Created 1 atoms
  create_atoms CPU = 0.000 seconds
Created 1 atoms
  create_atoms CPU = 0.000 seconds
Created 1 atoms
  create_atoms CPU = 0.000 seconds
Created 1 atoms
  create_atoms CPU = 0.000 seconds
Created 1 atoms
  create_atoms CPU = 0.000 seconds
Created 1 atoms
  create_atoms CPU = 0.000 seconds
Created 1 atoms
  create_atoms CPU = 0.000 seconds
Created 1 atoms
  create_atoms CPU = 0.000 seconds
Created 1 atoms
  create_atoms CPU = 0.000 seconds
Created 1 atoms
  create_atoms CPU = 0.000 seconds
Created 1 atoms
  create_atoms CPU = 0.000 seconds
Created 1 atoms
  create_atoms CPU = 0.000 seconds
Created 1 atoms
  create_atoms CPU = 0.000 seconds
Created 1 atoms
  create_atoms CPU = 0.000 seconds
Created 1 atoms
  create_atoms CPU = 0.000 seconds
Created 1 atoms
  create_atoms CPU = 0.000 seconds
Created 1 atoms
  create_atoms CPU = 0.000 seconds
Created 1 atoms
  create_atoms CPU = 0.000 seconds
Created 1 atoms
  create_atoms CPU = 0.000 seconds
Created 1 atoms
  create_atoms CPU = 0.000 seconds
Created 1 atoms
  create_atoms CPU = 0.000 seconds
Created 1 atoms
  create_atoms CPU = 0.000 seconds
Created 1 atoms
  create_atoms CPU = 0.000 seconds
Created 1 atoms
  create_atoms CPU = 0.000 seconds
Created 1 atoms
  create_atoms CPU = 0.000 seconds
Created 1 atoms
  create_atoms CPU = 0.000 seconds
Created 1 atoms
  create_atoms CPU = 0.000 seconds
Created 1 atoms
  create_atoms CPU = 0.000 seconds
Created 1 atoms
  create_atoms CPU = 0.000 seconds
Created 1 atoms
  create_atoms CPU = 0.000 seconds
Created 1 atoms
  create_atoms CPU = 0.000 seconds
Created 1 atoms
  create_atoms CPU = 0.000 seconds
Created 1 atoms
  create_atoms CPU = 0.000 seconds
Created 1 atoms
  create_atoms CPU = 0.000 seconds
Created 1 atoms
  create_atoms CPU = 0.000 seconds
Created 1 atoms
  create_atoms CPU = 0.000 seconds
Created 1 atoms
  create_atoms CPU = 0.000 seconds
Created 1 atoms
  create_atoms CPU = 0.000 seconds
Created 1 atoms
  create_atoms CPU = 0.000 seconds
Created 1 atoms
  create_atoms CPU = 0.000 seconds
Created 1 atoms
  create_atoms CPU = 0.000 seconds
Created 1 atoms
  create_atoms CPU = 0.000 seconds
Created 1 atoms
  create_atoms CPU = 0.000 seconds
Created 1 atoms
  create_atoms CPU = 0.000 seconds
Created 1 atoms
  create_atoms CPU = 0.000 seconds
Created 1 atoms
  create_atoms CPU = 0.000 seconds
Created 1 atoms
  create_atoms CPU = 0.000 seconds
Created 1 atoms
  create_atoms CPU = 0.000 seconds
Created 1 atoms
  create_atoms CPU = 0.000 seconds
Created 1 atoms
  create_atoms CPU = 0.000 seconds
Created 1 atoms
  create_atoms CPU = 0.000 seconds
Created 1 atoms
  create_atoms CPU = 0.000 seconds
Created 1 atoms
  create_atoms CPU = 0.000 seconds
Created 1 atoms
  create_atoms CPU = 0.000 seconds
Created 1 atoms
  create_atoms CPU = 0.000 seconds
Created 1 atoms
  create_atoms CPU = 0.000 seconds
Created 1 atoms
  create_atoms CPU = 0.000 seconds
Created 1 atoms
  create_atoms CPU = 0.000 seconds
Created 1 atoms
  create_atoms CPU = 0.000 seconds
Created 1 atoms
  create_atoms CPU = 0.000 seconds
Created 1 atoms
  create_atoms CPU = 0.000 seconds
Created 1 atoms
  create_atoms CPU = 0.000 seconds
Created 1 atoms
  create_atoms CPU = 0.000 seconds
Created 1 atoms
  create_atoms CPU = 0.000 seconds
Created 1 atoms
  create_atoms CPU = 0.000 seconds
Created 1 atoms
  create_atoms CPU = 0.000 seconds
Created 1 atoms
  create_atoms CPU = 0.000 seconds
Created 1 atoms
  create_atoms CPU = 0.000 seconds
Created 1 atoms
  create_atoms CPU = 0.000 seconds
Created 1 atoms
  create_atoms CPU = 0.000 seconds
Created 1 atoms
  create_atoms CPU = 0.000 seconds
Created 1 atoms
  create_atoms CPU = 0.000 seconds
Created 1 atoms
  create_atoms CPU = 0.000 seconds
Created 1 atoms
  create_atoms CPU = 0.000 seconds
Created 1 atoms
  create_atoms CPU = 0.000 seconds
Created 1 atoms
  create_atoms CPU = 0.000 seconds
Created 1 atoms
  create_atoms CPU = 0.000 seconds
Created 1 atoms
  create_atoms CPU = 0.000 seconds
Created 1 atoms
  create_atoms CPU = 0.000 seconds
Created 1 atoms
  create_atoms CPU = 0.000 seconds
Created 1 atoms
  create_atoms CPU = 0.000 seconds
Created 1 atoms
  create_atoms CPU = 0.000 seconds
Created 1 atoms
  create_atoms CPU = 0.000 seconds
Created 1 atoms
  create_atoms CPU = 0.000 seconds
Created 1 atoms
  create_atoms CPU = 0.000 seconds
Created 1 atoms
  create_atoms CPU = 0.000 seconds
Created 1 atoms
  create_atoms CPU = 0.000 seconds
Created 1 atoms
  create_atoms CPU = 0.000 seconds
Created 1 atoms
  create_atoms CPU = 0.000 seconds
Created 1 atoms
  create_atoms CPU = 0.000 seconds
Created 1 atoms
  create_atoms CPU = 0.000 seconds
Created 1 atoms
  create_atoms CPU = 0.000 seconds
Created 1 atoms
  create_atoms CPU = 0.000 seconds
Created 1 atoms
  create_atoms CPU = 0.000 seconds
Created 1 atoms
  create_atoms CPU = 0.000 seconds
Created 1 atoms
  create_atoms CPU = 0.000 seconds
Created 1 atoms
  create_atoms CPU = 0.000 seconds
Created 1 atoms
  create_atoms CPU = 0.000 seconds
Created 1 atoms
  create_atoms CPU = 0.000 seconds
Created 1 atoms
  create_atoms CPU = 0.000 seconds
Created 1 atoms
  create_atoms CPU = 0.000 seconds
Created 1 atoms
  create_atoms CPU = 0.000 seconds
Created 1 atoms
  create_atoms CPU = 0.000 seconds
Created 1 atoms
  create_atoms CPU = 0.000 seconds
Created 1 atoms
  create_atoms CPU = 0.000 seconds
Created 1 atoms
  create_atoms CPU = 0.000 seconds
Created 1 atoms
  create_atoms CPU = 0.000 seconds
Created 1 atoms
  create_atoms CPU = 0.000 seconds
Created 1 atoms
  create_atoms CPU = 0.000 seconds
Created 1 atoms
  create_atoms CPU = 0.000 seconds
Created 1 atoms
  create_atoms CPU = 0.000 seconds
Created 1 atoms
  create_atoms CPU = 0.000 seconds
Created 1 atoms
  create_atoms CPU = 0.000 seconds
Created 1 atoms
  create_atoms CPU = 0.000 seconds
Created 1 atoms
  create_atoms CPU = 0.000 seconds
Created 1 atoms
  create_atoms CPU = 0.000 seconds
Created 1 atoms
  create_atoms CPU = 0.000 seconds
Created 1 atoms
  create_atoms CPU = 0.000 seconds
Created 1 atoms
  create_atoms CPU = 0.000 seconds
Created 1 atoms
  create_atoms CPU = 0.000 seconds
Created 1 atoms
  create_atoms CPU = 0.000 seconds
Created 1 atoms
  create_atoms CPU = 0.000 seconds
Created 1 atoms
  create_atoms CPU = 0.000 seconds
Created 1 atoms
  create_atoms CPU = 0.000 seconds
Created 1 atoms
  create_atoms CPU = 0.000 seconds
Created 1 atoms
  create_atoms CPU = 0.000 seconds
Created 1 atoms
  create_atoms CPU = 0.000 seconds
Created 1 atoms
  create_atoms CPU = 0.000 seconds
Created 1 atoms
  create_atoms CPU = 0.000 seconds
Created 1 atoms
  create_atoms CPU = 0.000 seconds
Created 1 atoms
  create_atoms CPU = 0.000 seconds
Created 1 atoms
  create_atoms CPU = 0.000 seconds
Created 1 atoms
  create_atoms CPU = 0.000 seconds
Created 1 atoms
  create_atoms CPU = 0.000 seconds
Created 1 atoms
  create_atoms CPU = 0.000 seconds
Created 1 atoms
  create_atoms CPU = 0.000 seconds
Created 1 atoms
  create_atoms CPU = 0.000 seconds
Created 1 atoms
  create_atoms CPU = 0.000 seconds
Created 1 atoms
  create_atoms CPU = 0.000 seconds
Created 1 atoms
  create_atoms CPU = 0.000 seconds
Created 1 atoms
  create_atoms CPU = 0.000 seconds
Created 1 atoms
  create_atoms CPU = 0.000 seconds
Created 1 atoms
  create_atoms CPU = 0.000 seconds
Created 1 atoms
  create_atoms CPU = 0.000 seconds
Created 1 atoms
  create_atoms CPU = 0.000 seconds
Created 1 atoms
  create_atoms CPU = 0.000 seconds
Created 1 atoms
  create_atoms CPU = 0.000 seconds
Created 1 atoms
  create_atoms CPU = 0.000 seconds
Created 1 atoms
  create_atoms CPU = 0.000 seconds
Created 1 atoms
  create_atoms CPU = 0.000 seconds
Created 1 atoms
  create_atoms CPU = 0.000 seconds
Created 1 atoms
  create_atoms CPU = 0.000 seconds
Created 1 atoms
  create_atoms CPU = 0.000 seconds
Created 1 atoms
  create_atoms CPU = 0.000 seconds
Created 1 atoms
  create_atoms CPU = 0.000 seconds
Created 1 atoms
  create_atoms CPU = 0.000 seconds
Created 1 atoms
  create_atoms CPU = 0.000 seconds
Created 1 atoms
  create_atoms CPU = 0.000 seconds
Created 1 atoms
  create_atoms CPU = 0.000 seconds
Created 1 atoms
  create_atoms CPU = 0.000 seconds
Created 1 atoms
  create_atoms CPU = 0.000 seconds
Created 1 atoms
  create_atoms CPU = 0.000 seconds
Created 1 atoms
  create_atoms CPU = 0.000 seconds
Created 1 atoms
  create_atoms CPU = 0.000 seconds
Created 1 atoms
  create_atoms CPU = 0.000 seconds
Created 1 atoms
  create_atoms CPU = 0.000 seconds
Created 1 atoms
  create_atoms CPU = 0.000 seconds
Created 1 atoms
  create_atoms CPU = 0.000 seconds
Created 1 atoms
  create_atoms CPU = 0.000 seconds
Created 1 atoms
  create_atoms CPU = 0.000 seconds
Created 1 atoms
  create_atoms CPU = 0.000 seconds
Created 1 atoms
  create_atoms CPU = 0.000 seconds
Created 1 atoms
  create_atoms CPU = 0.000 seconds
Created 1 atoms
  create_atoms CPU = 0.000 seconds
Created 1 atoms
  create_atoms CPU = 0.000 seconds
Created 1 atoms
  create_atoms CPU = 0.000 seconds
Created 1 atoms
  create_atoms CPU = 0.000 seconds
Created 1 atoms
  create_atoms CPU = 0.000 seconds
Created 1 atoms
  create_atoms CPU = 0.000 seconds
Created 1 atoms
  create_atoms CPU = 0.000 seconds
Created 1 atoms
  create_atoms CPU = 0.000 seconds
Created 1 atoms
  create_atoms CPU = 0.000 seconds
Created 1 atoms
  create_atoms CPU = 0.000 seconds
Created 1 atoms
  create_atoms CPU = 0.000 seconds
Created 1 atoms
  create_atoms CPU = 0.000 seconds
Created 1 atoms
  create_atoms CPU = 0.000 seconds
Created 1 atoms
  create_atoms CPU = 0.000 seconds
Created 1 atoms
  create_atoms CPU = 0.000 seconds
Created 1 atoms
  create_atoms CPU = 0.000 seconds
Created 1 atoms
  create_atoms CPU = 0.000 seconds
Created 1 atoms
  create_atoms CPU = 0.000 seconds
Created 1 atoms
  create_atoms CPU = 0.000 seconds
Created 1 atoms
  create_atoms CPU = 0.000 seconds
Created 1 atoms
  create_atoms CPU = 0.000 seconds
Created 1 atoms
  create_atoms CPU = 0.000 seconds
Created 1 atoms
  create_atoms CPU = 0.000 seconds
Created 1 atoms
  create_atoms CPU = 0.000 seconds
Created 1 atoms
  create_atoms CPU = 0.000 seconds
Created 1 atoms
  create_atoms CPU = 0.000 seconds
Created 1 atoms
  create_atoms CPU = 0.000 seconds
Created 1 atoms
  create_atoms CPU = 0.000 seconds
Created 1 atoms
  create_atoms CPU = 0.000 seconds
Created 1 atoms
  create_atoms CPU = 0.000 seconds
Created 1 atoms
  create_atoms CPU = 0.000 seconds
Created 1 atoms
  create_atoms CPU = 0.000 seconds
Created 1 atoms
  create_atoms CPU = 0.000 seconds
Created 1 atoms
  create_atoms CPU = 0.000 seconds
Created 1 atoms
  create_atoms CPU = 0.000 seconds
Created 1 atoms
  create_atoms CPU = 0.000 seconds
Created 1 atoms
  create_atoms CPU = 0.000 seconds
Created 1 atoms
  create_atoms CPU = 0.000 seconds
Created 1 atoms
  create_atoms CPU = 0.000 seconds
Created 1 atoms
  create_atoms CPU = 0.000 seconds
Created 1 atoms
  create_atoms CPU = 0.000 seconds
Created 1 atoms
  create_atoms CPU = 0.000 seconds
Created 1 atoms
  create_atoms CPU = 0.000 seconds
Created 1 atoms
  create_atoms CPU = 0.000 seconds
Created 1 atoms
  create_atoms CPU = 0.000 seconds
Created 1 atoms
  create_atoms CPU = 0.000 seconds
Created 1 atoms
  create_atoms CPU = 0.000 seconds
Created 1 atoms
  create_atoms CPU = 0.000 seconds
Created 1 atoms
  create_atoms CPU = 0.000 seconds
Created 1 atoms
  create_atoms CPU = 0.000 seconds
Created 1 atoms
  create_atoms CPU = 0.000 seconds
Created 1 atoms
  create_atoms CPU = 0.000 seconds
Created 1 atoms
  create_atoms CPU = 0.000 seconds
Created 1 atoms
  create_atoms CPU = 0.000 seconds
Created 1 atoms
  create_atoms CPU = 0.000 seconds
Created 1 atoms
  create_atoms CPU = 0.000 seconds
Created 1 atoms
  create_atoms CPU = 0.000 seconds
Created 1 atoms
  create_atoms CPU = 0.000 seconds
Created 1 atoms
  create_atoms CPU = 0.000 seconds
Created 1 atoms
  create_atoms CPU = 0.000 seconds
Created 1 atoms
  create_atoms CPU = 0.000 seconds
Created 1 atoms
  create_atoms CPU = 0.000 seconds
Created 1 atoms
  create_atoms CPU = 0.000 seconds
Created 1 atoms
  create_atoms CPU = 0.000 seconds
Created 1 atoms
  create_atoms CPU = 0.000 seconds
Created 1 atoms
  create_atoms CPU = 0.000 seconds
Created 1 atoms
  create_atoms CPU = 0.000 seconds
Created 1 atoms
  create_atoms CPU = 0.000 seconds
Created 1 atoms
  create_atoms CPU = 0.000 seconds
Created 1 atoms
  create_atoms CPU = 0.000 seconds
Created 1 atoms
  create_atoms CPU = 0.000 seconds
Created 1 atoms
  create_atoms CPU = 0.000 seconds
Created 1 atoms
  create_atoms CPU = 0.000 seconds
Created 1 atoms
  create_atoms CPU = 0.000 seconds
Created 1 atoms
  create_atoms CPU = 0.000 seconds
Created 1 atoms
  create_atoms CPU = 0.000 seconds
Created 1 atoms
  create_atoms CPU = 0.000 seconds
Created 1 atoms
  create_atoms CPU = 0.000 seconds
Created 1 atoms
  create_atoms CPU = 0.000 seconds
Created 1 atoms
  create_atoms CPU = 0.000 seconds
Created 1 atoms
  create_atoms CPU = 0.000 seconds
Created 1 atoms
  create_atoms CPU = 0.000 seconds
Created 1 atoms
  create_atoms CPU = 0.000 seconds
Created 1 atoms
  create_atoms CPU = 0.000 seconds
Created 1 atoms
  create_atoms CPU = 0.000 seconds
Created 1 atoms
  create_atoms CPU = 0.000 seconds
Created 1 atoms
  create_atoms CPU = 0.000 seconds
Created 1 atoms
  create_atoms CPU = 0.000 seconds
Created 1 atoms
  create_atoms CPU = 0.000 seconds
Created 1 atoms
  create_atoms CPU = 0.000 seconds
Created 1 atoms
  create_atoms CPU = 0.000 seconds
Created 1 atoms
  create_atoms CPU = 0.000 seconds
Created 1 atoms
  create_atoms CPU = 0.000 seconds
Created 1 atoms
  create_atoms CPU = 0.000 seconds
Created 1 atoms
  create_atoms CPU = 0.000 seconds
Created 1 atoms
  create_atoms CPU = 0.000 seconds
Created 1 atoms
  create_atoms CPU = 0.000 seconds
Created 1 atoms
  create_atoms CPU = 0.000 seconds
Created 1 atoms
  create_atoms CPU = 0.000 seconds
Created 1 atoms
  create_atoms CPU = 0.000 seconds
Created 1 atoms
  create_atoms CPU = 0.000 seconds
Created 1 atoms
  create_atoms CPU = 0.000 seconds
Created 1 atoms
  create_atoms CPU = 0.000 seconds
Created 1 atoms
  create_atoms CPU = 0.000 seconds
Created 1 atoms
  create_atoms CPU = 0.000 seconds
Created 1 atoms
  create_atoms CPU = 0.000 seconds
Created 1 atoms
  create_atoms CPU = 0.000 seconds
Created 1 atoms
  create_atoms CPU = 0.000 seconds
Created 1 atoms
  create_atoms CPU = 0.000 seconds
Created 1 atoms
  create_atoms CPU = 0.000 seconds
Created 1 atoms
  create_atoms CPU = 0.000 seconds
Created 1 atoms
  create_atoms CPU = 0.000 seconds
Created 1 atoms
  create_atoms CPU = 0.000 seconds
Created 1 atoms
  create_atoms CPU = 0.000 seconds
Created 1 atoms
  create_atoms CPU = 0.000 seconds
Created 1 atoms
  create_atoms CPU = 0.000 seconds
Created 1 atoms
  create_atoms CPU = 0.000 seconds
Created 1 atoms
  create_atoms CPU = 0.000 seconds
Created 1 atoms
  create_atoms CPU = 0.000 seconds
Created 1 atoms
  create_atoms CPU = 0.000 seconds
Created 1 atoms
  create_atoms CPU = 0.000 seconds
Created 1 atoms
  create_atoms CPU = 0.000 seconds
Created 1 atoms
  create_atoms CPU = 0.000 seconds
Created 1 atoms
  create_atoms CPU = 0.000 seconds
Created 1 atoms
  create_atoms CPU = 0.000 seconds
Created 1 atoms
  create_atoms CPU = 0.000 seconds
Created 1 atoms
  create_atoms CPU = 0.000 seconds
Created 1 atoms
  create_atoms CPU = 0.000 seconds
Created 1 atoms
  create_atoms CPU = 0.000 seconds
Created 1 atoms
  create_atoms CPU = 0.000 seconds
Created 1 atoms
  create_atoms CPU = 0.000 seconds
Created 1 atoms
  create_atoms CPU = 0.000 seconds
Created 1 atoms
  create_atoms CPU = 0.000 seconds
Created 1 atoms
  create_atoms CPU = 0.000 seconds
Created 1 atoms
  create_atoms CPU = 0.000 seconds
Created 1 atoms
  create_atoms CPU = 0.000 seconds
Created 1 atoms
  create_atoms CPU = 0.000 seconds
Created 1 atoms
  create_atoms CPU = 0.000 seconds
Created 1 atoms
  create_atoms CPU = 0.000 seconds
Created 1 atoms
  create_atoms CPU = 0.000 seconds
Created 1 atoms
  create_atoms CPU = 0.000 seconds
Created 1 atoms
  create_atoms CPU = 0.000 seconds
Created 1 atoms
  create_atoms CPU = 0.000 seconds
Created 1 atoms
  create_atoms CPU = 0.000 seconds
Created 1 atoms
  create_atoms CPU = 0.000 seconds
Created 1 atoms
  create_atoms CPU = 0.000 seconds
Created 1 atoms
  create_atoms CPU = 0.000 seconds
Created 1 atoms
  create_atoms CPU = 0.000 seconds
Created 1 atoms
  create_atoms CPU = 0.000 seconds
Created 1 atoms
  create_atoms CPU = 0.000 seconds
Created 1 atoms
  create_atoms CPU = 0.000 seconds
Created 1 atoms
  create_atoms CPU = 0.000 seconds
Created 1 atoms
  create_atoms CPU = 0.000 seconds
Created 1 atoms
  create_atoms CPU = 0.000 seconds
Created 1 atoms
  create_atoms CPU = 0.000 seconds
Created 1 atoms
  create_atoms CPU = 0.000 seconds
Created 1 atoms
  create_atoms CPU = 0.000 seconds
Created 1 atoms
  create_atoms CPU = 0.000 seconds
Created 1 atoms
  create_atoms CPU = 0.000 seconds
Created 1 atoms
  create_atoms CPU = 0.000 seconds
Created 1 atoms
  create_atoms CPU = 0.000 seconds
Created 1 atoms
  create_atoms CPU = 0.000 seconds
Created 1 atoms
  create_atoms CPU = 0.000 seconds
Created 1 atoms
  create_atoms CPU = 0.000 seconds
Created 1 atoms
  create_atoms CPU = 0.000 seconds
Created 1 atoms
  create_atoms CPU = 0.000 seconds
Created 1 atoms
  create_atoms CPU = 0.000 seconds
Created 1 atoms
  create_atoms CPU = 0.000 seconds
Created 1 atoms
  create_atoms CPU = 0.000 seconds
Created 1 atoms
  create_atoms CPU = 0.000 seconds
Created 1 atoms
  create_atoms CPU = 0.000 seconds
Created 1 atoms
  create_atoms CPU = 0.000 seconds
Created 1 atoms
  create_atoms CPU = 0.000 seconds
Created 1 atoms
  create_atoms CPU = 0.000 seconds
Created 1 atoms
  create_atoms CPU = 0.000 seconds
Created 1 atoms
  create_atoms CPU = 0.000 seconds
Created 1 atoms
  create_atoms CPU = 0.000 seconds
Created 1 atoms
  create_atoms CPU = 0.000 seconds
Created 1 atoms
  create_atoms CPU = 0.000 seconds
Created 1 atoms
  create_atoms CPU = 0.000 seconds
Created 1 atoms
  create_atoms CPU = 0.000 seconds
Created 1 atoms
  create_atoms CPU = 0.000 seconds
Created 1 atoms
  create_atoms CPU = 0.000 seconds
Created 1 atoms
  create_atoms CPU = 0.000 seconds
Created 1 atoms
  create_atoms CPU = 0.000 seconds
Created 1 atoms
  create_atoms CPU = 0.000 seconds
Created 1 atoms
  create_atoms CPU = 0.000 seconds
Created 1 atoms
  create_atoms CPU = 0.000 seconds
Created 1 atoms
  create_atoms CPU = 0.000 seconds
Created 1 atoms
  create_atoms CPU = 0.000 seconds
Created 1 atoms
  create_atoms CPU = 0.000 seconds
Created 1 atoms
  create_atoms CPU = 0.000 seconds
Created 1 atoms
  create_atoms CPU = 0.000 seconds
Created 1 atoms
  create_atoms CPU = 0.000 seconds
Created 1 atoms
  create_atoms CPU = 0.000 seconds
Created 1 atoms
  create_atoms CPU = 0.000 seconds
Created 1 atoms
  create_atoms CPU = 0.000 seconds
Created 1 atoms
  create_atoms CPU = 0.000 seconds
Created 1 atoms
  create_atoms CPU = 0.000 seconds
Created 1 atoms
  create_atoms CPU = 0.000 seconds
Created 1 atoms
  create_atoms CPU = 0.000 seconds
Created 1 atoms
  create_atoms CPU = 0.000 seconds
Created 1 atoms
  create_atoms CPU = 0.000 seconds
Created 1 atoms
  create_atoms CPU = 0.000 seconds
Created 1 atoms
  create_atoms CPU = 0.000 seconds
Created 1 atoms
  create_atoms CPU = 0.000 seconds
Created 1 atoms
  create_atoms CPU = 0.000 seconds
Created 1 atoms
  create_atoms CPU = 0.000 seconds
Created 1 atoms
  create_atoms CPU = 0.000 seconds
Created 1 atoms
  create_atoms CPU = 0.000 seconds
Created 1 atoms
  create_atoms CPU = 0.000 seconds
Created 1 atoms
  create_atoms CPU = 0.000 seconds
Created 1 atoms
  create_atoms CPU = 0.000 seconds
Created 1 atoms
  create_atoms CPU = 0.000 seconds
Created 1 atoms
  create_atoms CPU = 0.000 seconds
Created 1 atoms
  create_atoms CPU = 0.000 seconds
Created 1 atoms
  create_atoms CPU = 0.000 seconds
Created 1 atoms
  create_atoms CPU = 0.000 seconds
Created 1 atoms
  create_atoms CPU = 0.000 seconds
Created 1 atoms
  create_atoms CPU = 0.000 seconds
Created 1 atoms
  create_atoms CPU = 0.000 seconds
Created 1 atoms
  create_atoms CPU = 0.000 seconds
Created 1 atoms
  create_atoms CPU = 0.000 seconds
Created 1 atoms
  create_atoms CPU = 0.000 seconds
Created 1 atoms
  create_atoms CPU = 0.000 seconds
Created 1 atoms
  create_atoms CPU = 0.000 seconds
Created 1 atoms
  create_atoms CPU = 0.000 seconds
Created 1 atoms
  create_atoms CPU = 0.000 seconds
Created 1 atoms
  create_atoms CPU = 0.000 seconds
Created 1 atoms
  create_atoms CPU = 0.000 seconds
Created 1 atoms
  create_atoms CPU = 0.000 seconds
Created 1 atoms
  create_atoms CPU = 0.000 seconds
Created 1 atoms
  create_atoms CPU = 0.000 seconds
Created 1 atoms
  create_atoms CPU = 0.000 seconds
Created 1 atoms
  create_atoms CPU = 0.000 seconds
Created 1 atoms
  create_atoms CPU = 0.000 seconds
Created 1 atoms
  create_atoms CPU = 0.000 seconds
Created 1 atoms
  create_atoms CPU = 0.000 seconds
Created 1 atoms
  create_atoms CPU = 0.000 seconds
Created 1 atoms
  create_atoms CPU = 0.000 seconds
Created 1 atoms
  create_atoms CPU = 0.000 seconds
Created 1 atoms
  create_atoms CPU = 0.000 seconds
Created 1 atoms
  create_atoms CPU = 0.000 seconds
Created 1 atoms
  create_atoms CPU = 0.000 seconds
Created 1 atoms
  create_atoms CPU = 0.000 seconds
Created 1 atoms
  create_atoms CPU = 0.000 seconds
Created 1 atoms
  create_atoms CPU = 0.000 seconds
Created 1 atoms
  create_atoms CPU = 0.000 seconds
Created 1 atoms
  create_atoms CPU = 0.000 seconds
Created 1 atoms
  create_atoms CPU = 0.000 seconds
Created 1 atoms
  create_atoms CPU = 0.000 seconds
Created 1 atoms
  create_atoms CPU = 0.000 seconds
Created 1 atoms
  create_atoms CPU = 0.000 seconds
Created 1 atoms
  create_atoms CPU = 0.000 seconds
Created 1 atoms
  create_atoms CPU = 0.000 seconds
Created 1 atoms
  create_atoms CPU = 0.000 seconds
Created 1 atoms
  create_atoms CPU = 0.000 seconds
Created 1 atoms
  create_atoms CPU = 0.000 seconds
Created 1 atoms
  create_atoms CPU = 0.000 seconds
Created 1 atoms
  create_atoms CPU = 0.000 seconds
Created 1 atoms
  create_atoms CPU = 0.000 seconds
Created 1 atoms
  create_atoms CPU = 0.000 seconds
Created 1 atoms
  create_atoms CPU = 0.000 seconds
Created 1 atoms
  create_atoms CPU = 0.000 seconds
Created 1 atoms
  create_atoms CPU = 0.000 seconds
Created 1 atoms
  create_atoms CPU = 0.000 seconds
Created 1 atoms
  create_atoms CPU = 0.000 seconds
Created 1 atoms
  create_atoms CPU = 0.000 seconds
Created 1 atoms
  create_atoms CPU = 0.000 seconds
Created 1 atoms
  create_atoms CPU = 0.000 seconds
Created 1 atoms
  create_atoms CPU = 0.000 seconds
Created 1 atoms
  create_atoms CPU = 0.000 seconds
Created 1 atoms
  create_atoms CPU = 0.000 seconds
Created 1 atoms
  create_atoms CPU = 0.000 seconds
Created 1 atoms
  create_atoms CPU = 0.000 seconds
Created 1 atoms
  create_atoms CPU = 0.000 seconds
Created 1 atoms
  create_atoms CPU = 0.000 seconds
Created 1 atoms
  create_atoms CPU = 0.000 seconds
Created 1 atoms
  create_atoms CPU = 0.000 seconds
Created 1 atoms
  create_atoms CPU = 0.000 seconds
Created 1 atoms
  create_atoms CPU = 0.000 seconds
Created 1 atoms
  create_atoms CPU = 0.000 seconds
Created 1 atoms
  create_atoms CPU = 0.000 seconds
Created 1 atoms
  create_atoms CPU = 0.000 seconds
Created 1 atoms
  create_atoms CPU = 0.000 seconds
Created 1 atoms
  create_atoms CPU = 0.000 seconds
Created 1 atoms
  create_atoms CPU = 0.000 seconds
Created 1 atoms
  create_atoms CPU = 0.000 seconds
Created 1 atoms
  create_atoms CPU = 0.000 seconds
Created 1 atoms
  create_atoms CPU = 0.000 seconds
Created 1 atoms
  create_atoms CPU = 0.000 seconds
Created 1 atoms
  create_atoms CPU = 0.000 seconds
Created 1 atoms
  create_atoms CPU = 0.000 seconds
Created 1 atoms
  create_atoms CPU = 0.000 seconds
Created 1 atoms
  create_atoms CPU = 0.000 seconds
Created 1 atoms
  create_atoms CPU = 0.000 seconds
Created 1 atoms
  create_atoms CPU = 0.000 seconds
Created 1 atoms
  create_atoms CPU = 0.000 seconds
Created 1 atoms
  create_atoms CPU = 0.000 seconds
Created 1 atoms
  create_atoms CPU = 0.000 seconds
Created 1 atoms
  create_atoms CPU = 0.000 seconds
Created 1 atoms
  create_atoms CPU = 0.000 seconds
Created 1 atoms
  create_atoms CPU = 0.000 seconds
Created 1 atoms
  create_atoms CPU = 0.000 seconds
Created 1 atoms
  create_atoms CPU = 0.000 seconds
Created 1 atoms
  create_atoms CPU = 0.000 seconds
Created 1 atoms
  create_atoms CPU = 0.000 seconds
Created 1 atoms
  create_atoms CPU = 0.000 seconds
Created 1 atoms
  create_atoms CPU = 0.000 seconds
Created 1 atoms
  create_atoms CPU = 0.000 seconds
Created 1 atoms
  create_atoms CPU = 0.000 seconds
Created 1 atoms
  create_atoms CPU = 0.000 seconds
Created 1 atoms
  create_atoms CPU = 0.000 seconds
Created 1 atoms
  create_atoms CPU = 0.000 seconds
Created 1 atoms
  create_atoms CPU = 0.000 seconds
Created 1 atoms
  create_atoms CPU = 0.000 seconds
Created 1 atoms
  create_atoms CPU = 0.000 seconds
Created 1 atoms
  create_atoms CPU = 0.000 seconds
Created 1 atoms
  create_atoms CPU = 0.000 seconds
Created 1 atoms
  create_atoms CPU = 0.000 seconds
Created 1 atoms
  create_atoms CPU = 0.000 seconds
Created 1 atoms
  create_atoms CPU = 0.000 seconds
Created 1 atoms
  create_atoms CPU = 0.000 seconds
Created 1 atoms
  create_atoms CPU = 0.000 seconds
Created 1 atoms
  create_atoms CPU = 0.000 seconds
Created 1 atoms
  create_atoms CPU = 0.000 seconds
Created 1 atoms
  create_atoms CPU = 0.000 seconds
Created 1 atoms
  create_atoms CPU = 0.000 seconds
Created 1 atoms
  create_atoms CPU = 0.000 seconds
Created 1 atoms
  create_atoms CPU = 0.000 seconds
Created 1 atoms
  create_atoms CPU = 0.000 seconds
Created 1 atoms
  create_atoms CPU = 0.000 seconds
Created 1 atoms
  create_atoms CPU = 0.000 seconds
Created 1 atoms
  create_atoms CPU = 0.000 seconds
Created 1 atoms
  create_atoms CPU = 0.000 seconds
Created 1 atoms
  create_atoms CPU = 0.000 seconds
Created 1 atoms
  create_atoms CPU = 0.000 seconds
Created 1 atoms
  create_atoms CPU = 0.000 seconds
Created 1 atoms
  create_atoms CPU = 0.000 seconds
Created 1 atoms
  create_atoms CPU = 0.000 seconds
Created 1 atoms
  create_atoms CPU = 0.000 seconds
Created 1 atoms
  create_atoms CPU = 0.000 seconds
Created 1 atoms
  create_atoms CPU = 0.000 seconds
Created 1 atoms
  create_atoms CPU = 0.000 seconds
Created 1 atoms
  create_atoms CPU = 0.000 seconds
Created 1 atoms
  create_atoms CPU = 0.000 seconds
Created 1 atoms
  create_atoms CPU = 0.000 seconds
Created 1 atoms
  create_atoms CPU = 0.000 seconds
Created 1 atoms
  create_atoms CPU = 0.000 seconds
Created 1 atoms
  create_atoms CPU = 0.000 seconds
Created 1 atoms
  create_atoms CPU = 0.000 seconds
Created 1 atoms
  create_atoms CPU = 0.000 seconds
Created 1 atoms
  create_atoms CPU = 0.000 seconds
Created 1 atoms
  create_atoms CPU = 0.000 seconds
Created 1 atoms
  create_atoms CPU = 0.000 seconds
Created 1 atoms
  create_atoms CPU = 0.000 seconds
Created 1 atoms
  create_atoms CPU = 0.000 seconds
Created 1 atoms
  create_atoms CPU = 0.000 seconds
Created 1 atoms
  create_atoms CPU = 0.000 seconds
Created 1 atoms
  create_atoms CPU = 0.000 seconds
Created 1 atoms
  create_atoms CPU = 0.000 seconds
Created 1 atoms
  create_atoms CPU = 0.000 seconds
Created 1 atoms
  create_atoms CPU = 0.000 seconds
Created 1 atoms
  create_atoms CPU = 0.000 seconds
Created 1 atoms
  create_atoms CPU = 0.000 seconds
Created 1 atoms
  create_atoms CPU = 0.000 seconds
Created 1 atoms
  create_atoms CPU = 0.000 seconds
Created 1 atoms
  create_atoms CPU = 0.000 seconds
Created 1 atoms
  create_atoms CPU = 0.000 seconds
Created 1 atoms
  create_atoms CPU = 0.000 seconds
Created 1 atoms
  create_atoms CPU = 0.000 seconds
Created 1 atoms
  create_atoms CPU = 0.000 seconds
Created 1 atoms
  create_atoms CPU = 0.000 seconds
Created 1 atoms
  create_atoms CPU = 0.000 seconds
Created 1 atoms
  create_atoms CPU = 0.000 seconds
Created 1 atoms
  create_atoms CPU = 0.000 seconds
Created 1 atoms
  create_atoms CPU = 0.000 seconds
Created 1 atoms
  create_atoms CPU = 0.000 seconds
Created 1 atoms
  create_atoms CPU = 0.000 seconds
Created 1 atoms
  create_atoms CPU = 0.000 seconds
Created 1 atoms
  create_atoms CPU = 0.000 seconds
Created 1 atoms
  create_atoms CPU = 0.000 seconds
Created 1 atoms
  create_atoms CPU = 0.000 seconds
Created 1 atoms
  create_atoms CPU = 0.000 seconds
Created 1 atoms
  create_atoms CPU = 0.000 seconds
Created 1 atoms
  create_atoms CPU = 0.000 seconds
Created 1 atoms
  create_atoms CPU = 0.000 seconds
Created 1 atoms
  create_atoms CPU = 0.000 seconds
Created 1 atoms
  create_atoms CPU = 0.000 seconds
Created 1 atoms
  create_atoms CPU = 0.000 seconds
Created 1 atoms
  create_atoms CPU = 0.000 seconds
Created 1 atoms
  create_atoms CPU = 0.000 seconds
Created 1 atoms
  create_atoms CPU = 0.000 seconds
Created 1 atoms
  create_atoms CPU = 0.000 seconds
Created 1 atoms
  create_atoms CPU = 0.000 seconds
Created 1 atoms
  create_atoms CPU = 0.000 seconds
Created 1 atoms
  create_atoms CPU = 0.000 seconds
Created 1 atoms
  create_atoms CPU = 0.000 seconds
Created 1 atoms
  create_atoms CPU = 0.000 seconds
Created 1 atoms
  create_atoms CPU = 0.000 seconds
Created 1 atoms
  create_atoms CPU = 0.000 seconds
Created 1 atoms
  create_atoms CPU = 0.000 seconds
Created 1 atoms
  create_atoms CPU = 0.000 seconds
Created 1 atoms
  create_atoms CPU = 0.000 seconds
Created 1 atoms
  create_atoms CPU = 0.000 seconds
Created 1 atoms
  create_atoms CPU = 0.000 seconds
Created 1 atoms
  create_atoms CPU = 0.000 seconds
Created 1 atoms
  create_atoms CPU = 0.000 seconds
Created 1 atoms
  create_atoms CPU = 0.000 seconds
Created 1 atoms
  create_atoms CPU = 0.000 seconds
Created 1 atoms
  create_atoms CPU = 0.000 seconds
Created 1 atoms
  create_atoms CPU = 0.000 seconds
Created 1 atoms
  create_atoms CPU = 0.000 seconds
Created 1 atoms
  create_atoms CPU = 0.000 seconds
Created 1 atoms
  create_atoms CPU = 0.000 seconds
Created 1 atoms
  create_atoms CPU = 0.000 seconds
Created 1 atoms
  create_atoms CPU = 0.000 seconds
Created 1 atoms
  create_atoms CPU = 0.000 seconds
Created 1 atoms
  create_atoms CPU = 0.000 seconds
Created 1 atoms
  create_atoms CPU = 0.000 seconds
Created 1 atoms
  create_atoms CPU = 0.000 seconds
Created 1 atoms
  create_atoms CPU = 0.000 seconds
Created 1 atoms
  create_atoms CPU = 0.000 seconds
Created 1 atoms
  create_atoms CPU = 0.000 seconds
Created 1 atoms
  create_atoms CPU = 0.000 seconds
Created 1 atoms
  create_atoms CPU = 0.000 seconds
Created 1 atoms
  create_atoms CPU = 0.000 seconds
Created 1 atoms
  create_atoms CPU = 0.000 seconds
Created 1 atoms
  create_atoms CPU = 0.000 seconds
Created 1 atoms
  create_atoms CPU = 0.000 seconds
Created 1 atoms
  create_atoms CPU = 0.000 seconds
Created 1 atoms
  create_atoms CPU = 0.000 seconds
Created 1 atoms
  create_atoms CPU = 0.000 seconds
Created 1 atoms
  create_atoms CPU = 0.000 seconds
Created 1 atoms
  create_atoms CPU = 0.000 seconds
Created 1 atoms
  create_atoms CPU = 0.000 seconds
Created 1 atoms
  create_atoms CPU = 0.000 seconds
Created 1 atoms
  create_atoms CPU = 0.000 seconds
Created 1 atoms
  create_atoms CPU = 0.000 seconds
Created 1 atoms
  create_atoms CPU = 0.000 seconds
Created 1 atoms
  create_atoms CPU = 0.000 seconds
Created 1 atoms
  create_atoms CPU = 0.000 seconds
Created 1 atoms
  create_atoms CPU = 0.000 seconds
Created 1 atoms
  create_atoms CPU = 0.000 seconds
Created 1 atoms
  create_atoms CPU = 0.000 seconds
Created 1 atoms
  create_atoms CPU = 0.000 seconds
Created 1 atoms
  create_atoms CPU = 0.000 seconds
Created 1 atoms
  create_atoms CPU = 0.000 seconds
Created 1 atoms
  create_atoms CPU = 0.000 seconds
Created 1 atoms
  create_atoms CPU = 0.000 seconds
Created 1 atoms
  create_atoms CPU = 0.000 seconds
Created 1 atoms
  create_atoms CPU = 0.000 seconds
Created 1 atoms
  create_atoms CPU = 0.000 seconds
Created 1 atoms
  create_atoms CPU = 0.000 seconds
Created 1 atoms
  create_atoms CPU = 0.000 seconds
Created 1 atoms
  create_atoms CPU = 0.000 seconds
Created 1 atoms
  create_atoms CPU = 0.000 seconds
Created 1 atoms
  create_atoms CPU = 0.000 seconds
Created 1 atoms
  create_atoms CPU = 0.000 seconds
Created 1 atoms
  create_atoms CPU = 0.000 seconds
Created 1 atoms
  create_atoms CPU = 0.000 seconds
Created 1 atoms
  create_atoms CPU = 0.000 seconds
Created 1 atoms
  create_atoms CPU = 0.000 seconds
Created 1 atoms
  create_atoms CPU = 0.000 seconds
Created 1 atoms
  create_atoms CPU = 0.000 seconds
Created 1 atoms
  create_atoms CPU = 0.000 seconds
Created 1 atoms
  create_atoms CPU = 0.000 seconds
Created 1 atoms
  create_atoms CPU = 0.000 seconds
Created 1 atoms
  create_atoms CPU = 0.000 seconds
Created 1 atoms
  create_atoms CPU = 0.000 seconds
Created 1 atoms
  create_atoms CPU = 0.000 seconds
Created 1 atoms
  create_atoms CPU = 0.000 seconds
Created 1 atoms
  create_atoms CPU = 0.000 seconds
Created 1 atoms
  create_atoms CPU = 0.000 seconds
Created 1 atoms
  create_atoms CPU = 0.000 seconds
Created 1 atoms
  create_atoms CPU = 0.000 seconds
Created 1 atoms
  create_atoms CPU = 0.000 seconds
Created 1 atoms
  create_atoms CPU = 0.000 seconds
Created 1 atoms
  create_atoms CPU = 0.000 seconds
Created 1 atoms
  create_atoms CPU = 0.000 seconds
Created 1 atoms
  create_atoms CPU = 0.000 seconds
Created 1 atoms
  create_atoms CPU = 0.000 seconds
Created 1 atoms
  create_atoms CPU = 0.000 seconds
Created 1 atoms
  create_atoms CPU = 0.000 seconds
Created 1 atoms
  create_atoms CPU = 0.000 seconds
Created 1 atoms
  create_atoms CPU = 0.000 seconds
Created 1 atoms
  create_atoms CPU = 0.000 seconds
Created 1 atoms
  create_atoms CPU = 0.000 seconds
Created 1 atoms
  create_atoms CPU = 0.000 seconds
Created 1 atoms
  create_atoms CPU = 0.000 seconds
Created 1 atoms
  create_atoms CPU = 0.000 seconds
Created 1 atoms
  create_atoms CPU = 0.000 seconds
Created 1 atoms
  create_atoms CPU = 0.000 seconds
Created 1 atoms
  create_atoms CPU = 0.000 seconds
Created 1 atoms
  create_atoms CPU = 0.000 seconds
Created 1 atoms
  create_atoms CPU = 0.000 seconds
Created 1 atoms
  create_atoms CPU = 0.000 seconds
Created 1 atoms
  create_atoms CPU = 0.000 seconds
Created 1 atoms
  create_atoms CPU = 0.000 seconds
Created 1 atoms
  create_atoms CPU = 0.000 seconds
Created 1 atoms
  create_atoms CPU = 0.000 seconds
Created 1 atoms
  create_atoms CPU = 0.000 seconds
Created 1 atoms
  create_atoms CPU = 0.000 seconds
Created 1 atoms
  create_atoms CPU = 0.000 seconds
Created 1 atoms
  create_atoms CPU = 0.000 seconds
Created 1 atoms
  create_atoms CPU = 0.000 seconds
Created 1 atoms
  create_atoms CPU = 0.000 seconds
Created 1 atoms
  create_atoms CPU = 0.000 seconds
Created 1 atoms
  create_atoms CPU = 0.000 seconds
Created 1 atoms
  create_atoms CPU = 0.000 seconds
Created 1 atoms
  create_atoms CPU = 0.000 seconds
Created 1 atoms
  create_atoms CPU = 0.000 seconds
Created 1 atoms
  create_atoms CPU = 0.000 seconds
Created 1 atoms
  create_atoms CPU = 0.000 seconds
Created 1 atoms
  create_atoms CPU = 0.000 seconds
Created 1 atoms
  create_atoms CPU = 0.000 seconds
Created 1 atoms
  create_atoms CPU = 0.000 seconds
Created 1 atoms
  create_atoms CPU = 0.000 seconds
Created 1 atoms
  create_atoms CPU = 0.000 seconds
Created 1 atoms
  create_atoms CPU = 0.000 seconds
Created 1 atoms
  create_atoms CPU = 0.000 seconds
Created 1 atoms
  create_atoms CPU = 0.000 seconds
Created 1 atoms
  create_atoms CPU = 0.000 seconds
Created 1 atoms
  create_atoms CPU = 0.000 seconds
Created 1 atoms
  create_atoms CPU = 0.000 seconds
Created 1 atoms
  create_atoms CPU = 0.000 seconds
Created 1 atoms
  create_atoms CPU = 0.000 seconds
Created 1 atoms
  create_atoms CPU = 0.000 seconds
Created 1 atoms
  create_atoms CPU = 0.000 seconds
Created 1 atoms
  create_atoms CPU = 0.000 seconds
Created 1 atoms
  create_atoms CPU = 0.000 seconds
Created 1 atoms
  create_atoms CPU = 0.000 seconds
Created 1 atoms
  create_atoms CPU = 0.000 seconds
Created 1 atoms
  create_atoms CPU = 0.000 seconds
Created 1 atoms
  create_atoms CPU = 0.000 seconds
Created 1 atoms
  create_atoms CPU = 0.000 seconds
Created 1 atoms
  create_atoms CPU = 0.000 seconds
Created 1 atoms
  create_atoms CPU = 0.000 seconds
Created 1 atoms
  create_atoms CPU = 0.000 seconds
Created 1 atoms
  create_atoms CPU = 0.000 seconds
Created 1 atoms
  create_atoms CPU = 0.000 seconds
Created 1 atoms
  create_atoms CPU = 0.000 seconds
Created 1 atoms
  create_atoms CPU = 0.000 seconds
Created 1 atoms
  create_atoms CPU = 0.000 seconds
Created 1 atoms
  create_atoms CPU = 0.000 seconds
Created 1 atoms
  create_atoms CPU = 0.000 seconds
Created 1 atoms
  create_atoms CPU = 0.000 seconds
Created 1 atoms
  create_atoms CPU = 0.000 seconds
Created 1 atoms
  create_atoms CPU = 0.000 seconds
Created 1 atoms
  create_atoms CPU = 0.000 seconds
Created 1 atoms
  create_atoms CPU = 0.000 seconds
Created 1 atoms
  create_atoms CPU = 0.000 seconds
Created 1 atoms
  create_atoms CPU = 0.000 seconds
Created 1 atoms
  create_atoms CPU = 0.000 seconds
Created 1 atoms
  create_atoms CPU = 0.000 seconds
Created 1 atoms
  create_atoms CPU = 0.000 seconds
Created 1 atoms
  create_atoms CPU = 0.000 seconds
Created 1 atoms
  create_atoms CPU = 0.000 seconds
Created 1 atoms
  create_atoms CPU = 0.000 seconds
Created 1 atoms
  create_atoms CPU = 0.000 seconds
Created 1 atoms
  create_atoms CPU = 0.000 seconds
Created 1 atoms
  create_atoms CPU = 0.000 seconds
Created 1 atoms
  create_atoms CPU = 0.000 seconds
Created 1 atoms
  create_atoms CPU = 0.000 seconds
Created 1 atoms
  create_atoms CPU = 0.000 seconds
Created 1 atoms
  create_atoms CPU = 0.000 seconds
Created 1 atoms
  create_atoms CPU = 0.000 seconds
Created 1 atoms
  create_atoms CPU = 0.000 seconds
Created 1 atoms
  create_atoms CPU = 0.000 seconds
Created 1 atoms
  create_atoms CPU = 0.000 seconds
Created 1 atoms
  create_atoms CPU = 0.000 seconds
Created 1 atoms
  create_atoms CPU = 0.000 seconds
Created 1 atoms
  create_atoms CPU = 0.000 seconds
Created 1 atoms
  create_atoms CPU = 0.000 seconds
Created 1 atoms
  create_atoms CPU = 0.000 seconds
Created 1 atoms
  create_atoms CPU = 0.000 seconds
Created 1 atoms
  create_atoms CPU = 0.000 seconds
Created 1 atoms
  create_atoms CPU = 0.000 seconds
Created 1 atoms
  create_atoms CPU = 0.000 seconds
Created 1 atoms
  create_atoms CPU = 0.000 seconds
Created 1 atoms
  create_atoms CPU = 0.000 seconds
Created 1 atoms
  create_atoms CPU = 0.000 seconds
Created 1 atoms
  create_atoms CPU = 0.000 seconds
Created 1 atoms
  create_atoms CPU = 0.000 seconds
Created 1 atoms
  create_atoms CPU = 0.000 seconds
Created 1 atoms
  create_atoms CPU = 0.000 seconds
Created 1 atoms
  create_atoms CPU = 0.000 seconds
Created 1 atoms
  create_atoms CPU = 0.000 seconds
Created 1 atoms
  create_atoms CPU = 0.000 seconds
Created 1 atoms
  create_atoms CPU = 0.000 seconds
Created 1 atoms
  create_atoms CPU = 0.000 seconds
Created 1 atoms
  create_atoms CPU = 0.000 seconds
Created 1 atoms
  create_atoms CPU = 0.000 seconds
Created 1 atoms
  create_atoms CPU = 0.000 seconds
Created 1 atoms
  create_atoms CPU = 0.000 seconds
Created 1 atoms
  create_atoms CPU = 0.000 seconds
Created 1 atoms
  create_atoms CPU = 0.000 seconds
Created 1 atoms
  create_atoms CPU = 0.000 seconds
Created 1 atoms
  create_atoms CPU = 0.000 seconds
Created 1 atoms
  create_atoms CPU = 0.000 seconds
Created 1 atoms
  create_atoms CPU = 0.000 seconds
Created 1 atoms
  create_atoms CPU = 0.000 seconds
Created 1 atoms
  create_atoms CPU = 0.000 seconds
Created 1 atoms
  create_atoms CPU = 0.000 seconds
Created 1 atoms
  create_atoms CPU = 0.000 seconds
Created 1 atoms
  create_atoms CPU = 0.000 seconds
Created 1 atoms
  create_atoms CPU = 0.000 seconds
Created 1 atoms
  create_atoms CPU = 0.000 seconds
Created 1 atoms
  create_atoms CPU = 0.000 seconds
Created 1 atoms
  create_atoms CPU = 0.000 seconds
Created 1 atoms
  create_atoms CPU = 0.000 seconds
Created 1 atoms
  create_atoms CPU = 0.000 seconds
Created 1 atoms
  create_atoms CPU = 0.000 seconds
Created 1 atoms
  create_atoms CPU = 0.000 seconds
Created 1 atoms
  create_atoms CPU = 0.000 seconds
Created 1 atoms
  create_atoms CPU = 0.000 seconds
Created 1 atoms
  create_atoms CPU = 0.000 seconds
Created 1 atoms
  create_atoms CPU = 0.000 seconds
Created 1 atoms
  create_atoms CPU = 0.000 seconds
Created 1 atoms
  create_atoms CPU = 0.000 seconds
Created 1 atoms
  create_atoms CPU = 0.000 seconds
Created 1 atoms
  create_atoms CPU = 0.000 seconds
Created 1 atoms
  create_atoms CPU = 0.000 seconds
Created 1 atoms
  create_atoms CPU = 0.000 seconds
Created 1 atoms
  create_atoms CPU = 0.000 seconds
Created 1 atoms
  create_atoms CPU = 0.000 seconds
Created 1 atoms
  create_atoms CPU = 0.000 seconds
Created 1 atoms
  create_atoms CPU = 0.000 seconds
Created 1 atoms
  create_atoms CPU = 0.000 seconds
Created 1 atoms
  create_atoms CPU = 0.000 seconds
Created 1 atoms
  create_atoms CPU = 0.000 seconds
Created 1 atoms
  create_atoms CPU = 0.000 seconds
Created 1 atoms
  create_atoms CPU = 0.000 seconds
Created 1 atoms
  create_atoms CPU = 0.000 seconds
Created 1 atoms
  create_atoms CPU = 0.000 seconds
Created 1 atoms
  create_atoms CPU = 0.000 seconds
Created 1 atoms
  create_atoms CPU = 0.000 seconds
Created 1 atoms
  create_atoms CPU = 0.000 seconds
Created 1 atoms
  create_atoms CPU = 0.000 seconds
Created 1 atoms
  create_atoms CPU = 0.000 seconds
Created 1 atoms
  create_atoms CPU = 0.000 seconds
Created 1 atoms
  create_atoms CPU = 0.000 seconds
Created 1 atoms
  create_atoms CPU = 0.000 seconds
Created 1 atoms
  create_atoms CPU = 0.000 seconds
Created 1 atoms
  create_atoms CPU = 0.000 seconds
Created 1 atoms
  create_atoms CPU = 0.000 seconds
Created 1 atoms
  create_atoms CPU = 0.000 seconds
Created 1 atoms
  create_atoms CPU = 0.000 seconds
Created 1 atoms
  create_atoms CPU = 0.000 seconds
Created 1 atoms
  create_atoms CPU = 0.000 seconds
Created 1 atoms
  create_atoms CPU = 0.000 seconds
Created 1 atoms
  create_atoms CPU = 0.000 seconds
Created 1 atoms
  create_atoms CPU = 0.000 seconds
Created 1 atoms
  create_atoms CPU = 0.000 seconds
Created 1 atoms
  create_atoms CPU = 0.000 seconds
Created 1 atoms
  create_atoms CPU = 0.000 seconds
Created 1 atoms
  create_atoms CPU = 0.000 seconds
Created 1 atoms
  create_atoms CPU = 0.000 seconds
Created 1 atoms
  create_atoms CPU = 0.000 seconds
Created 1 atoms
  create_atoms CPU = 0.000 seconds
Created 1 atoms
  create_atoms CPU = 0.000 seconds
Created 1 atoms
  create_atoms CPU = 0.000 seconds
Created 1 atoms
  create_atoms CPU = 0.000 seconds
Created 1 atoms
  create_atoms CPU = 0.000 seconds
Created 1 atoms
  create_atoms CPU = 0.000 seconds
Created 1 atoms
  create_atoms CPU = 0.000 seconds
Created 1 atoms
  create_atoms CPU = 0.000 seconds
Created 1 atoms
  create_atoms CPU = 0.000 seconds
Created 1 atoms
  create_atoms CPU = 0.000 seconds
Created 1 atoms
  create_atoms CPU = 0.000 seconds
Created 1 atoms
  create_atoms CPU = 0.000 seconds
Created 1 atoms
  create_atoms CPU = 0.000 seconds
Created 1 atoms
  create_atoms CPU = 0.000 seconds
Created 1 atoms
  create_atoms CPU = 0.000 seconds
Created 1 atoms
  create_atoms CPU = 0.000 seconds
Created 1 atoms
  create_atoms CPU = 0.000 seconds
Created 1 atoms
  create_atoms CPU = 0.000 seconds
Created 1 atoms
  create_atoms CPU = 0.000 seconds
Created 1 atoms
  create_atoms CPU = 0.000 seconds
Created 1 atoms
  create_atoms CPU = 0.000 seconds
Created 1 atoms
  create_atoms CPU = 0.000 seconds
Created 1 atoms
  create_atoms CPU = 0.000 seconds
Created 1 atoms
  create_atoms CPU = 0.000 seconds
Created 1 atoms
  create_atoms CPU = 0.000 seconds
Created 1 atoms
  create_atoms CPU = 0.000 seconds
Created 1 atoms
  create_atoms CPU = 0.000 seconds
Created 1 atoms
  create_atoms CPU = 0.000 seconds
Created 1 atoms
  create_atoms CPU = 0.000 seconds
Created 1 atoms
  create_atoms CPU = 0.000 seconds
Created 1 atoms
  create_atoms CPU = 0.000 seconds
Created 1 atoms
  create_atoms CPU = 0.000 seconds
Created 1 atoms
  create_atoms CPU = 0.000 seconds
Created 1 atoms
  create_atoms CPU = 0.000 seconds
Created 1 atoms
  create_atoms CPU = 0.000 seconds
Created 1 atoms
  create_atoms CPU = 0.000 seconds
Created 1 atoms
  create_atoms CPU = 0.000 seconds
Created 1 atoms
  create_atoms CPU = 0.000 seconds
Created 1 atoms
  create_atoms CPU = 0.000 seconds
Created 1 atoms
  create_atoms CPU = 0.000 seconds
Created 1 atoms
  create_atoms CPU = 0.000 seconds
Created 1 atoms
  create_atoms CPU = 0.000 seconds
Created 1 atoms
  create_atoms CPU = 0.000 seconds
Created 1 atoms
  create_atoms CPU = 0.000 seconds
Created 1 atoms
  create_atoms CPU = 0.000 seconds
Created 1 atoms
  create_atoms CPU = 0.000 seconds
Created 1 atoms
  create_atoms CPU = 0.000 seconds
Created 1 atoms
  create_atoms CPU = 0.000 seconds
Created 1 atoms
  create_atoms CPU = 0.000 seconds
Created 1 atoms
  create_atoms CPU = 0.000 seconds
Created 1 atoms
  create_atoms CPU = 0.000 seconds
Created 1 atoms
  create_atoms CPU = 0.000 seconds
Created 1 atoms
  create_atoms CPU = 0.000 seconds
Created 1 atoms
  create_atoms CPU = 0.000 seconds
Created 1 atoms
  create_atoms CPU = 0.000 seconds
Created 1 atoms
  create_atoms CPU = 0.000 seconds
Created 1 atoms
  create_atoms CPU = 0.000 seconds
Created 1 atoms
  create_atoms CPU = 0.000 seconds
Created 1 atoms
  create_atoms CPU = 0.000 seconds
Created 1 atoms
  create_atoms CPU = 0.000 seconds
Created 1 atoms
  create_atoms CPU = 0.000 seconds
Created 1 atoms
  create_atoms CPU = 0.000 seconds
Created 1 atoms
  create_atoms CPU = 0.000 seconds
Created 1 atoms
  create_atoms CPU = 0.000 seconds
Created 1 atoms
  create_atoms CPU = 0.000 seconds
Created 1 atoms
  create_atoms CPU = 0.000 seconds
Created 1 atoms
  create_atoms CPU = 0.000 seconds
Created 1 atoms
  create_atoms CPU = 0.000 seconds
Created 1 atoms
  create_atoms CPU = 0.000 seconds
Created 1 atoms
  create_atoms CPU = 0.000 seconds
Created 1 atoms
  create_atoms CPU = 0.000 seconds
Created 1 atoms
  create_atoms CPU = 0.000 seconds
Created 1 atoms
  create_atoms CPU = 0.000 seconds
Created 1 atoms
  create_atoms CPU = 0.000 seconds
Created 1 atoms
  create_atoms CPU = 0.000 seconds
Created 1 atoms
  create_atoms CPU = 0.000 seconds
Created 1 atoms
  create_atoms CPU = 0.000 seconds
Created 1 atoms
  create_atoms CPU = 0.000 seconds
Created 1 atoms
  create_atoms CPU = 0.000 seconds
Created 1 atoms
  create_atoms CPU = 0.000 seconds
Created 1 atoms
  create_atoms CPU = 0.000 seconds
Created 1 atoms
  create_atoms CPU = 0.000 seconds
Created 1 atoms
  create_atoms CPU = 0.000 seconds
Created 1 atoms
  create_atoms CPU = 0.000 seconds
Created 1 atoms
  create_atoms CPU = 0.000 seconds
Created 1 atoms
  create_atoms CPU = 0.000 seconds
Created 1 atoms
  create_atoms CPU = 0.000 seconds
Created 1 atoms
  create_atoms CPU = 0.000 seconds
Created 1 atoms
  create_atoms CPU = 0.000 seconds
Created 1 atoms
  create_atoms CPU = 0.000 seconds
Created 1 atoms
  create_atoms CPU = 0.000 seconds
Created 1 atoms
  create_atoms CPU = 0.000 seconds
Created 1 atoms
  create_atoms CPU = 0.000 seconds
Created 1 atoms
  create_atoms CPU = 0.000 seconds
Created 1 atoms
  create_atoms CPU = 0.000 seconds
Created 1 atoms
  create_atoms CPU = 0.000 seconds
Created 1 atoms
  create_atoms CPU = 0.000 seconds
Created 1 atoms
  create_atoms CPU = 0.000 seconds
Created 1 atoms
  create_atoms CPU = 0.000 seconds
Created 1 atoms
  create_atoms CPU = 0.000 seconds
Created 1 atoms
  create_atoms CPU = 0.000 seconds
Created 1 atoms
  create_atoms CPU = 0.000 seconds
Created 1 atoms
  create_atoms CPU = 0.000 seconds
Created 1 atoms
  create_atoms CPU = 0.000 seconds
Created 1 atoms
  create_atoms CPU = 0.000 seconds
Created 1 atoms
  create_atoms CPU = 0.000 seconds
Created 1 atoms
  create_atoms CPU = 0.000 seconds
Created 1 atoms
  create_atoms CPU = 0.000 seconds
Created 1 atoms
  create_atoms CPU = 0.000 seconds
Created 1 atoms
  create_atoms CPU = 0.000 seconds
Created 1 atoms
  create_atoms CPU = 0.000 seconds
Created 1 atoms
  create_atoms CPU = 0.000 seconds
Created 1 atoms
  create_atoms CPU = 0.000 seconds
Created 1 atoms
  create_atoms CPU = 0.000 seconds
Created 1 atoms
  create_atoms CPU = 0.000 seconds
Created 1 atoms
  create_atoms CPU = 0.000 seconds
Created 1 atoms
  create_atoms CPU = 0.000 seconds
Created 1 atoms
  create_atoms CPU = 0.000 seconds
Created 1 atoms
  create_atoms CPU = 0.000 seconds
Created 1 atoms
  create_atoms CPU = 0.000 seconds
Created 1 atoms
  create_atoms CPU = 0.000 seconds
Created 1 atoms
  create_atoms CPU = 0.000 seconds
Created 1 atoms
  create_atoms CPU = 0.000 seconds
Created 1 atoms
  create_atoms CPU = 0.000 seconds
Created 1 atoms
  create_atoms CPU = 0.000 seconds
Created 1 atoms
  create_atoms CPU = 0.000 seconds
Created 1 atoms
  create_atoms CPU = 0.000 seconds
Created 1 atoms
  create_atoms CPU = 0.000 seconds
Created 1 atoms
  create_atoms CPU = 0.000 seconds
Created 1 atoms
  create_atoms CPU = 0.000 seconds
Created 1 atoms
  create_atoms CPU = 0.000 seconds
Created 1 atoms
  create_atoms CPU = 0.000 seconds
Created 1 atoms
  create_atoms CPU = 0.000 seconds
Created 1 atoms
  create_atoms CPU = 0.000 seconds
Created 1 atoms
  create_atoms CPU = 0.000 seconds
Created 1 atoms
  create_atoms CPU = 0.000 seconds
Created 1 atoms
  create_atoms CPU = 0.000 seconds
Created 1 atoms
  create_atoms CPU = 0.000 seconds
Created 1 atoms
  create_atoms CPU = 0.000 seconds
Created 1 atoms
  create_atoms CPU = 0.000 seconds
Created 1 atoms
  create_atoms CPU = 0.000 seconds
Created 1 atoms
  create_atoms CPU = 0.000 seconds
Created 1 atoms
  create_atoms CPU = 0.000 seconds
Created 1 atoms
  create_atoms CPU = 0.000 seconds
Created 1 atoms
  create_atoms CPU = 0.000 seconds
Created 1 atoms
  create_atoms CPU = 0.000 seconds
Created 1 atoms
  create_atoms CPU = 0.000 seconds
Created 1 atoms
  create_atoms CPU = 0.000 seconds
Created 1 atoms
  create_atoms CPU = 0.000 seconds
Created 1 atoms
  create_atoms CPU = 0.000 seconds
Created 1 atoms
  create_atoms CPU = 0.000 seconds
Created 1 atoms
  create_atoms CPU = 0.000 seconds
Created 1 atoms
  create_atoms CPU = 0.000 seconds
Created 1 atoms
  create_atoms CPU = 0.000 seconds
Created 1 atoms
  create_atoms CPU = 0.000 seconds
Created 1 atoms
  create_atoms CPU = 0.000 seconds
Created 1 atoms
  create_atoms CPU = 0.000 seconds
Created 1 atoms
  create_atoms CPU = 0.000 seconds
Created 1 atoms
  create_atoms CPU = 0.000 seconds
Created 1 atoms
  create_atoms CPU = 0.000 seconds
Created 1 atoms
  create_atoms CPU = 0.000 seconds
Created 1 atoms
  create_atoms CPU = 0.000 seconds
Created 1 atoms
  create_atoms CPU = 0.000 seconds
Created 1 atoms
  create_atoms CPU = 0.000 seconds
Created 1 atoms
  create_atoms CPU = 0.000 seconds
Created 1 atoms
  create_atoms CPU = 0.000 seconds
Created 1 atoms
  create_atoms CPU = 0.000 seconds
Created 1 atoms
  create_atoms CPU = 0.000 seconds
Created 1 atoms
  create_atoms CPU = 0.000 seconds
Created 1 atoms
  create_atoms CPU = 0.000 seconds
Created 1 atoms
  create_atoms CPU = 0.000 seconds
Created 1 atoms
  create_atoms CPU = 0.000 seconds
Created 1 atoms
  create_atoms CPU = 0.000 seconds
Created 1 atoms
  create_atoms CPU = 0.000 seconds
Created 1 atoms
  create_atoms CPU = 0.000 seconds
Created 1 atoms
  create_atoms CPU = 0.000 seconds
Created 1 atoms
  create_atoms CPU = 0.000 seconds
Created 1 atoms
  create_atoms CPU = 0.000 seconds
Created 1 atoms
  create_atoms CPU = 0.000 seconds
Created 1 atoms
  create_atoms CPU = 0.000 seconds
Created 1 atoms
  create_atoms CPU = 0.000 seconds
Created 1 atoms
  create_atoms CPU = 0.000 seconds
Created 1 atoms
  create_atoms CPU = 0.000 seconds
Created 1 atoms
  create_atoms CPU = 0.000 seconds
Created 1 atoms
  create_atoms CPU = 0.000 seconds
Created 1 atoms
  create_atoms CPU = 0.000 seconds
Created 1 atoms
  create_atoms CPU = 0.000 seconds
Created 1 atoms
  create_atoms CPU = 0.000 seconds
Created 1 atoms
  create_atoms CPU = 0.000 seconds
Created 1 atoms
  create_atoms CPU = 0.000 seconds
Created 1 atoms
  create_atoms CPU = 0.000 seconds
Created 1 atoms
  create_atoms CPU = 0.000 seconds
Created 1 atoms
  create_atoms CPU = 0.000 seconds
Created 1 atoms
  create_atoms CPU = 0.000 seconds
Created 1 atoms
  create_atoms CPU = 0.000 seconds
Created 1 atoms
  create_atoms CPU = 0.000 seconds
Created 1 atoms
  create_atoms CPU = 0.000 seconds
Created 1 atoms
  create_atoms CPU = 0.000 seconds
Created 1 atoms
  create_atoms CPU = 0.000 seconds
Created 1 atoms
  create_atoms CPU = 0.000 seconds
Created 1 atoms
  create_atoms CPU = 0.000 seconds
Created 1 atoms
  create_atoms CPU = 0.000 seconds
Created 1 atoms
  create_atoms CPU = 0.000 seconds
Created 1 atoms
  create_atoms CPU = 0.000 seconds
Created 1 atoms
  create_atoms CPU = 0.000 seconds
Created 1 atoms
  create_atoms CPU = 0.000 seconds
Created 1 atoms
  create_atoms CPU = 0.000 seconds
Created 1 atoms
  create_atoms CPU = 0.000 seconds
Created 1 atoms
  create_atoms CPU = 0.000 seconds
Created 1 atoms
  create_atoms CPU = 0.000 seconds
Created 1 atoms
  create_atoms CPU = 0.000 seconds
Created 1 atoms
  create_atoms CPU = 0.000 seconds
Created 1 atoms
  create_atoms CPU = 0.000 seconds
Created 1 atoms
  create_atoms CPU = 0.000 seconds
Created 1 atoms
  create_atoms CPU = 0.000 seconds
Created 1 atoms
  create_atoms CPU = 0.000 seconds
Created 1 atoms
  create_atoms CPU = 0.000 seconds
Created 1 atoms
  create_atoms CPU = 0.000 seconds
Created 1 atoms
  create_atoms CPU = 0.000 seconds
Created 1 atoms
  create_atoms CPU = 0.000 seconds
Created 1 atoms
  create_atoms CPU = 0.000 seconds
Created 1 atoms
  create_atoms CPU = 0.000 seconds
Created 1 atoms
  create_atoms CPU = 0.000 seconds
Created 1 atoms
  create_atoms CPU = 0.000 seconds
Created 1 atoms
  create_atoms CPU = 0.000 seconds
Created 1 atoms
  create_atoms CPU = 0.000 seconds
Created 1 atoms
  create_atoms CPU = 0.000 seconds
Created 1 atoms
  create_atoms CPU = 0.000 seconds
Created 1 atoms
  create_atoms CPU = 0.000 seconds
Created 1 atoms
  create_atoms CPU = 0.000 seconds
Created 1 atoms
  create_atoms CPU = 0.000 seconds
Created 1 atoms
  create_atoms CPU = 0.000 seconds
Created 1 atoms
  create_atoms CPU = 0.000 seconds
Created 1 atoms
  create_atoms CPU = 0.000 seconds
Created 1 atoms
  create_atoms CPU = 0.000 seconds
Created 1 atoms
  create_atoms CPU = 0.000 seconds
Created 1 atoms
  create_atoms CPU = 0.000 seconds
Created 1 atoms
  create_atoms CPU = 0.000 seconds
Created 1 atoms
  create_atoms CPU = 0.000 seconds
Created 1 atoms
  create_atoms CPU = 0.000 seconds
Created 1 atoms
  create_atoms CPU = 0.000 seconds
Created 1 atoms
  create_atoms CPU = 0.000 seconds
Created 1 atoms
  create_atoms CPU = 0.000 seconds
Created 1 atoms
  create_atoms CPU = 0.000 seconds
Created 1 atoms
  create_atoms CPU = 0.000 seconds
Created 1 atoms
  create_atoms CPU = 0.000 seconds
Created 1 atoms
  create_atoms CPU = 0.000 seconds
Created 1 atoms
  create_atoms CPU = 0.000 seconds
Created 1 atoms
  create_atoms CPU = 0.000 seconds
Created 1 atoms
  create_atoms CPU = 0.000 seconds
Created 1 atoms
  create_atoms CPU = 0.000 seconds
Created 1 atoms
  create_atoms CPU = 0.000 seconds
Created 1 atoms
  create_atoms CPU = 0.000 seconds
Created 1 atoms
  create_atoms CPU = 0.000 seconds
Created 1 atoms
  create_atoms CPU = 0.000 seconds
Created 1 atoms
  create_atoms CPU = 0.000 seconds
Created 1 atoms
  create_atoms CPU = 0.000 seconds
Created 1 atoms
  create_atoms CPU = 0.000 seconds
Created 1 atoms
  create_atoms CPU = 0.000 seconds
Created 1 atoms
  create_atoms CPU = 0.000 seconds
Created 1 atoms
  create_atoms CPU = 0.000 seconds
Created 1 atoms
  create_atoms CPU = 0.000 seconds
Created 1 atoms
  create_atoms CPU = 0.000 seconds
Created 1 atoms
  create_atoms CPU = 0.000 seconds
Created 1 atoms
  create_atoms CPU = 0.000 seconds
Created 1 atoms
  create_atoms CPU = 0.000 seconds
Created 1 atoms
  create_atoms CPU = 0.000 seconds
Created 1 atoms
  create_atoms CPU = 0.000 seconds
Created 1 atoms
  create_atoms CPU = 0.000 seconds
Created 1 atoms
  create_atoms CPU = 0.000 seconds
Created 1 atoms
  create_atoms CPU = 0.000 seconds
Created 1 atoms
  create_atoms CPU = 0.000 seconds
Created 1 atoms
  create_atoms CPU = 0.000 seconds
Created 1 atoms
  create_atoms CPU = 0.000 seconds
Created 1 atoms
  create_atoms CPU = 0.000 seconds
Created 1 atoms
  create_atoms CPU = 0.000 seconds
Created 1 atoms
  create_atoms CPU = 0.000 seconds
Created 1 atoms
  create_atoms CPU = 0.000 seconds
Created 1 atoms
  create_atoms CPU = 0.000 seconds
Created 1 atoms
  create_atoms CPU = 0.000 seconds
Created 1 atoms
  create_atoms CPU = 0.000 seconds
Created 1 atoms
  create_atoms CPU = 0.000 seconds
Created 1 atoms
  create_atoms CPU = 0.000 seconds
Created 1 atoms
  create_atoms CPU = 0.000 seconds
Created 1 atoms
  create_atoms CPU = 0.000 seconds
Created 1 atoms
  create_atoms CPU = 0.000 seconds
Created 1 atoms
  create_atoms CPU = 0.000 seconds
Created 1 atoms
  create_atoms CPU = 0.000 seconds
Created 1 atoms
  create_atoms CPU = 0.000 seconds
Created 1 atoms
  create_atoms CPU = 0.000 seconds
Created 1 atoms
  create_atoms CPU = 0.000 seconds
Created 1 atoms
  create_atoms CPU = 0.000 seconds
Created 1 atoms
  create_atoms CPU = 0.000 seconds
Created 1 atoms
  create_atoms CPU = 0.000 seconds
Created 1 atoms
  create_atoms CPU = 0.000 seconds
Created 1 atoms
  create_atoms CPU = 0.000 seconds
Created 1 atoms
  create_atoms CPU = 0.000 seconds
Created 1 atoms
  create_atoms CPU = 0.000 seconds
Created 1 atoms
  create_atoms CPU = 0.000 seconds
Created 1 atoms
  create_atoms CPU = 0.000 seconds
Created 1 atoms
  create_atoms CPU = 0.000 seconds
Created 1 atoms
  create_atoms CPU = 0.000 seconds
Created 1 atoms
  create_atoms CPU = 0.000 seconds
Created 1 atoms
  create_atoms CPU = 0.000 seconds
Created 1 atoms
  create_atoms CPU = 0.000 seconds
Created 1 atoms
  create_atoms CPU = 0.000 seconds
Created 1 atoms
  create_atoms CPU = 0.000 seconds
Created 1 atoms
  create_atoms CPU = 0.000 seconds
Created 1 atoms
  create_atoms CPU = 0.000 seconds
Created 1 atoms
  create_atoms CPU = 0.000 seconds
Created 1 atoms
  create_atoms CPU = 0.000 seconds
Created 1 atoms
  create_atoms CPU = 0.000 seconds
Created 1 atoms
  create_atoms CPU = 0.000 seconds
Created 1 atoms
  create_atoms CPU = 0.000 seconds
Created 1 atoms
  create_atoms CPU = 0.000 seconds
Created 1 atoms
  create_atoms CPU = 0.000 seconds
Created 1 atoms
  create_atoms CPU = 0.000 seconds
Created 1 atoms
  create_atoms CPU = 0.000 seconds
Created 1 atoms
  create_atoms CPU = 0.000 seconds
Created 1 atoms
  create_atoms CPU = 0.000 seconds
Created 1 atoms
  create_atoms CPU = 0.000 seconds
Created 1 atoms
  create_atoms CPU = 0.000 seconds
Created 1 atoms
  create_atoms CPU = 0.000 seconds
Created 1 atoms
  create_atoms CPU = 0.000 seconds
Created 1 atoms
  create_atoms CPU = 0.000 seconds
Created 1 atoms
  create_atoms CPU = 0.000 seconds
Created 1 atoms
  create_atoms CPU = 0.000 seconds
Created 1 atoms
  create_atoms CPU = 0.000 seconds
Created 1 atoms
  create_atoms CPU = 0.000 seconds
Created 1 atoms
  create_atoms CPU = 0.000 seconds
Created 1 atoms
  create_atoms CPU = 0.000 seconds
Created 1 atoms
  create_atoms CPU = 0.000 seconds
Created 1 atoms
  create_atoms CPU = 0.000 seconds
Created 1 atoms
  create_atoms CPU = 0.000 seconds
Created 1 atoms
  create_atoms CPU = 0.000 seconds
Created 1 atoms
  create_atoms CPU = 0.000 seconds
Created 1 atoms
  create_atoms CPU = 0.000 seconds
Created 1 atoms
  create_atoms CPU = 0.000 seconds
Created 1 atoms
  create_atoms CPU = 0.000 seconds
Created 1 atoms
  create_atoms CPU = 0.000 seconds
Created 1 atoms
  create_atoms CPU = 0.000 seconds
Created 1 atoms
  create_atoms CPU = 0.000 seconds
Created 1 atoms
  create_atoms CPU = 0.000 seconds
Created 1 atoms
  create_atoms CPU = 0.000 seconds
Created 1 atoms
  create_atoms CPU = 0.000 seconds
Created 1 atoms
  create_atoms CPU = 0.000 seconds
Created 1 atoms
  create_atoms CPU = 0.000 seconds
Created 1 atoms
  create_atoms CPU = 0.000 seconds
Created 1 atoms
  create_atoms CPU = 0.000 seconds
Created 1 atoms
  create_atoms CPU = 0.000 seconds
Created 1 atoms
  create_atoms CPU = 0.000 seconds
Created 1 atoms
  create_atoms CPU = 0.000 seconds
Created 1 atoms
  create_atoms CPU = 0.000 seconds
Created 1 atoms
  create_atoms CPU = 0.000 seconds
Created 1 atoms
  create_atoms CPU = 0.000 seconds
Created 1 atoms
  create_atoms CPU = 0.000 seconds
Created 1 atoms
  create_atoms CPU = 0.000 seconds
Created 1 atoms
  create_atoms CPU = 0.000 seconds
Created 1 atoms
  create_atoms CPU = 0.000 seconds
Created 1 atoms
  create_atoms CPU = 0.000 seconds
Created 1 atoms
  create_atoms CPU = 0.000 seconds
Created 1 atoms
  create_atoms CPU = 0.000 seconds
Created 1 atoms
  create_atoms CPU = 0.000 seconds
Created 1 atoms
  create_atoms CPU = 0.000 seconds
Created 1 atoms
  create_atoms CPU = 0.000 seconds
Created 1 atoms
  create_atoms CPU = 0.000 seconds
Created 1 atoms
  create_atoms CPU = 0.000 seconds
Created 1 atoms
  create_atoms CPU = 0.000 seconds
Created 1 atoms
  create_atoms CPU = 0.000 seconds
Created 1 atoms
  create_atoms CPU = 0.000 seconds
Created 1 atoms
  create_atoms CPU = 0.000 seconds
Created 1 atoms
  create_atoms CPU = 0.000 seconds
Created 1 atoms
  create_atoms CPU = 0.000 seconds
Created 1 atoms
  create_atoms CPU = 0.000 seconds
Created 1 atoms
  create_atoms CPU = 0.000 seconds
Created 1 atoms
  create_atoms CPU = 0.000 seconds
Created 1 atoms
  create_atoms CPU = 0.000 seconds
Created 1 atoms
[...]
Created 1 atoms
  create_atoms CPU = 0.000 seconds
Created 1 atoms
  create_atoms CPU = 0.000 seconds
Created 1 atoms
  create_atoms CPU = 0.000 seconds
Created 1 atoms
  create_atoms CPU = 0.000 seconds
Created 1 atoms
  create_atoms CPU = 0.000 seconds
Created 1 atoms
  create_atoms CPU = 0.000 seconds
Created 1 atoms
  create_atoms CPU = 0.000 seconds
Created 1 atoms
  create_atoms CPU = 0.000 seconds
Created 1 atoms
  create_atoms CPU = 0.000 seconds
Created 1 atoms
  create_atoms CPU = 0.000 seconds
Created 1 atoms
  create_atoms CPU = 0.000 seconds
Created 1 atoms
  create_atoms CPU = 0.000 seconds
Created 1 atoms
  create_atoms CPU = 0.000 seconds
Created 1 atoms
  create_atoms CPU = 0.000 seconds
Created 1 atoms
  create_atoms CPU = 0.000 seconds
Created 1 atoms
  create_atoms CPU = 0.000 seconds
Created 1 atoms
  create_atoms CPU = 0.000 seconds
Created 1 atoms
  create_atoms CPU = 0.000 seconds
Created 1 atoms
  create_atoms CPU = 0.000 seconds
Created 1 atoms
  create_atoms CPU = 0.000 seconds
Created 1 atoms
  create_atoms CPU = 0.000 seconds
Created 1 atoms
  create_atoms CPU = 0.000 seconds
Created 1 atoms
  create_atoms CPU = 0.000 seconds
Created 1 atoms
  create_atoms CPU = 0.000 seconds
Created 1 atoms
  create_atoms CPU = 0.000 seconds
Created 1 atoms
  create_atoms CPU = 0.000 seconds
Created 1 atoms
  create_atoms CPU = 0.000 seconds
Created 1 atoms
  create_atoms CPU = 0.000 seconds
Created 1 atoms
  create_atoms CPU = 0.000 seconds
Created 1 atoms
  create_atoms CPU = 0.000 seconds
Created 1 atoms
  create_atoms CPU = 0.000 seconds
Created 1 atoms
  create_atoms CPU = 0.000 seconds
Created 1 atoms
  create_atoms CPU = 0.000 seconds
Created 1 atoms
  create_atoms CPU = 0.000 seconds
Created 1 atoms
  create_atoms CPU = 0.000 seconds
Created 1 atoms
  create_atoms CPU = 0.000 seconds
Created 1 atoms
  create_atoms CPU = 0.000 seconds
Created 1 atoms
  create_atoms CPU = 0.000 seconds
Created 1 atoms
  create_atoms CPU = 0.000 seconds
Created 1 atoms
  create_atoms CPU = 0.000 seconds
Created 1 atoms
  create_atoms CPU = 0.000 seconds
Created 1 atoms
  create_atoms CPU = 0.000 seconds
Created 1 atoms
  create_atoms CPU = 0.000 seconds
Created 1 atoms
  create_atoms CPU = 0.000 seconds
Created 1 atoms
  create_atoms CPU = 0.000 seconds
Created 1 atoms
  create_atoms CPU = 0.000 seconds
Created 1 atoms
  create_atoms CPU = 0.000 seconds
Created 1 atoms
  create_atoms CPU = 0.000 seconds
Created 1 atoms
  create_atoms CPU = 0.000 seconds
Created 1 atoms
  create_atoms CPU = 0.000 seconds
Created 1 atoms
  create_atoms CPU = 0.000 seconds
Created 1 atoms
  create_atoms CPU = 0.000 seconds
Created 1 atoms
  create_atoms CPU = 0.000 seconds
Created 1 atoms
  create_atoms CPU = 0.000 seconds
Created 1 atoms
  create_atoms CPU = 0.000 seconds
Created 1 atoms
  create_atoms CPU = 0.000 seconds
Created 1 atoms
  create_atoms CPU = 0.000 seconds
Created 1 atoms
  create_atoms CPU = 0.000 seconds
Created 1 atoms
  create_atoms CPU = 0.000 seconds
Created 1 atoms
  create_atoms CPU = 0.000 seconds
Created 1 atoms
  create_atoms CPU = 0.000 seconds
Created 1 atoms
  create_atoms CPU = 0.000 seconds
Created 1 atoms
  create_atoms CPU = 0.000 seconds
Created 1 atoms
  create_atoms CPU = 0.000 seconds
Created 1 atoms
  create_atoms CPU = 0.000 seconds
Created 1 atoms
  create_atoms CPU = 0.000 seconds
Created 1 atoms
  create_atoms CPU = 0.000 seconds
Created 1 atoms
  create_atoms CPU = 0.000 seconds
Created 1 atoms
  create_atoms CPU = 0.000 seconds
Created 1 atoms
  create_atoms CPU = 0.000 seconds
Created 1 atoms
  create_atoms CPU = 0.000 seconds
Created 1 atoms
  create_atoms CPU = 0.000 seconds
Created 1 atoms
  create_atoms CPU = 0.000 seconds
Created 1 atoms
  create_atoms CPU = 0.000 seconds
Created 1 atoms
  create_atoms CPU = 0.000 seconds
Created 1 atoms
  create_atoms CPU = 0.000 seconds
Created 1 atoms
  create_atoms CPU = 0.000 seconds
Created 1 atoms
  create_atoms CPU = 0.000 seconds
Created 1 atoms
  create_atoms CPU = 0.000 seconds
Created 1 atoms
  create_atoms CPU = 0.000 seconds
Created 1 atoms
  create_atoms CPU = 0.000 seconds
Created 1 atoms
  create_atoms CPU = 0.000 seconds
Created 1 atoms
  create_atoms CPU = 0.000 seconds
Created 1 atoms
  create_atoms CPU = 0.000 seconds
Created 1 atoms
  create_atoms CPU = 0.000 seconds
Created 1 atoms
  create_atoms CPU = 0.000 seconds
Created 1 atoms
  create_atoms CPU = 0.000 seconds
Created 1 atoms
  create_atoms CPU = 0.000 seconds
Created 1 atoms
  create_atoms CPU = 0.000 seconds
Created 1 atoms
  create_atoms CPU = 0.000 seconds
Created 1 atoms
  create_atoms CPU = 0.000 seconds
Created 1 atoms
  create_atoms CPU = 0.000 seconds
Created 1 atoms
  create_atoms CPU = 0.000 seconds
Created 1 atoms
  create_atoms CPU = 0.000 seconds
Created 1 atoms
  create_atoms CPU = 0.000 seconds
Created 1 atoms
  create_atoms CPU = 0.000 seconds
Created 1 atoms
  create_atoms CPU = 0.000 seconds
Created 1 atoms
  create_atoms CPU = 0.000 seconds
Created 1 atoms
  create_atoms CPU = 0.000 seconds
Created 1 atoms
  create_atoms CPU = 0.000 seconds
Created 1 atoms
  create_atoms CPU = 0.000 seconds
Created 1 atoms
  create_atoms CPU = 0.000 seconds
Created 1 atoms
  create_atoms CPU = 0.000 seconds
Created 1 atoms
  create_atoms CPU = 0.000 seconds
Created 1 atoms
  create_atoms CPU = 0.000 seconds
Created 1 atoms
  create_atoms CPU = 0.000 seconds
Created 1 atoms
  create_atoms CPU = 0.000 seconds
Created 1 atoms
  create_atoms CPU = 0.000 seconds
Created 1 atoms
  create_atoms CPU = 0.000 seconds
Created 1 atoms
  create_atoms CPU = 0.000 seconds
Created 1 atoms
  create_atoms CPU = 0.000 seconds
Created 1 atoms
  create_atoms CPU = 0.000 seconds
Created 1 atoms
  create_atoms CPU = 0.000 seconds
Created 1 atoms
  create_atoms CPU = 0.000 seconds
Created 1 atoms
  create_atoms CPU = 0.000 seconds
Created 1 atoms
  create_atoms CPU = 0.000 seconds
Created 1 atoms
  create_atoms CPU = 0.000 seconds
Created 1 atoms
  create_atoms CPU = 0.000 seconds
Created 1 atoms
  create_atoms CPU = 0.000 seconds
Created 1 atoms
  create_atoms CPU = 0.000 seconds
Created 1 atoms
  create_atoms CPU = 0.000 seconds
Created 1 atoms
  create_atoms CPU = 0.000 seconds
Created 1 atoms
  create_atoms CPU = 0.000 seconds
Created 1 atoms
  create_atoms CPU = 0.000 seconds
Created 1 atoms
  create_atoms CPU = 0.000 seconds
Created 1 atoms
  create_atoms CPU = 0.000 seconds
Created 1 atoms
  create_atoms CPU = 0.000 seconds
Created 1 atoms
  create_atoms CPU = 0.000 seconds
Created 1 atoms
  create_atoms CPU = 0.000 seconds
Created 1 atoms
  create_atoms CPU = 0.000 seconds
Created 1 atoms
  create_atoms CPU = 0.000 seconds
Created 1 atoms
  create_atoms CPU = 0.000 seconds
Created 1 atoms
  create_atoms CPU = 0.000 seconds
Created 1 atoms
  create_atoms CPU = 0.000 seconds
Created 1 atoms
  create_atoms CPU = 0.000 seconds
Created 1 atoms
  create_atoms CPU = 0.000 seconds
Created 1 atoms
  create_atoms CPU = 0.000 seconds
Created 1 atoms
  create_atoms CPU = 0.000 seconds
Created 1 atoms
  create_atoms CPU = 0.000 seconds
Created 1 atoms
  create_atoms CPU = 0.000 seconds
Created 1 atoms
  create_atoms CPU = 0.000 seconds
Created 1 atoms
  create_atoms CPU = 0.000 seconds
Created 1 atoms
  create_atoms CPU = 0.000 seconds
Created 1 atoms
  create_atoms CPU = 0.000 seconds
Created 1 atoms
  create_atoms CPU = 0.000 seconds
Created 1 atoms
  create_atoms CPU = 0.000 seconds
Created 1 atoms
  create_atoms CPU = 0.000 seconds
Created 1 atoms
  create_atoms CPU = 0.000 seconds
Created 1 atoms
  create_atoms CPU = 0.000 seconds
Created 1 atoms
  create_atoms CPU = 0.000 seconds
Created 1 atoms
  create_atoms CPU = 0.000 seconds
Created 1 atoms
  create_atoms CPU = 0.000 seconds
Created 1 atoms
  create_atoms CPU = 0.000 seconds
Created 1 atoms
  create_atoms CPU = 0.000 seconds
Created 1 atoms
  create_atoms CPU = 0.000 seconds
Created 1 atoms
  create_atoms CPU = 0.000 seconds
Created 1 atoms
  create_atoms CPU = 0.000 seconds
Created 1 atoms
  create_atoms CPU = 0.000 seconds
Created 1 atoms
  create_atoms CPU = 0.000 seconds
Created 1 atoms
  create_atoms CPU = 0.000 seconds
Created 1 atoms
  create_atoms CPU = 0.000 seconds
Created 1 atoms
  create_atoms CPU = 0.000 seconds
Created 1 atoms
  create_atoms CPU = 0.000 seconds
Created 1 atoms
  create_atoms CPU = 0.000 seconds
Created 1 atoms
  create_atoms CPU = 0.000 seconds
Created 1 atoms
  create_atoms CPU = 0.000 seconds
Created 1 atoms
  create_atoms CPU = 0.000 seconds
Created 1 atoms
  create_atoms CPU = 0.000 seconds
Created 1 atoms
  create_atoms CPU = 0.000 seconds
Created 1 atoms
  create_atoms CPU = 0.000 seconds
Created 1 atoms
  create_atoms CPU = 0.000 seconds
Created 1 atoms
  create_atoms CPU = 0.000 seconds
Created 1 atoms
  create_atoms CPU = 0.000 seconds
Created 1 atoms
  create_atoms CPU = 0.000 seconds
Created 1 atoms
  create_atoms CPU = 0.000 seconds
Created 1 atoms
  create_atoms CPU = 0.000 seconds
Created 1 atoms
  create_atoms CPU = 0.000 seconds
Created 1 atoms
  create_atoms CPU = 0.000 seconds
Created 1 atoms
  create_atoms CPU = 0.000 seconds
Created 1 atoms
  create_atoms CPU = 0.000 seconds
Created 1 atoms
  create_atoms CPU = 0.000 seconds
Created 1 atoms
  create_atoms CPU = 0.000 seconds
Created 1 atoms
  create_atoms CPU = 0.000 seconds
Created 1 atoms
  create_atoms CPU = 0.000 seconds
Created 1 atoms
  create_atoms CPU = 0.000 seconds
Created 1 atoms
  create_atoms CPU = 0.000 seconds
Created 1 atoms
  create_atoms CPU = 0.000 seconds
Created 1 atoms
  create_atoms CPU = 0.000 seconds
Created 1 atoms
  create_atoms CPU = 0.000 seconds
Created 1 atoms
  create_atoms CPU = 0.000 seconds
Created 1 atoms
  create_atoms CPU = 0.000 seconds
Created 1 atoms
  create_atoms CPU = 0.000 seconds
Created 1 atoms
  create_atoms CPU = 0.000 seconds
Created 1 atoms
  create_atoms CPU = 0.000 seconds
Created 1 atoms
  create_atoms CPU = 0.000 seconds
Created 1 atoms
  create_atoms CPU = 0.000 seconds
Created 1 atoms
  create_atoms CPU = 0.000 seconds
Created 1 atoms
  create_atoms CPU = 0.000 seconds
Created 1 atoms
  create_atoms CPU = 0.000 seconds
Created 1 atoms
  create_atoms CPU = 0.000 seconds
Created 1 atoms
  create_atoms CPU = 0.000 seconds
Created 1 atoms
  create_atoms CPU = 0.000 seconds
Created 1 atoms
  create_atoms CPU = 0.000 seconds
Created 1 atoms
  create_atoms CPU = 0.000 seconds
Created 1 atoms
  create_atoms CPU = 0.000 seconds
Created 1 atoms
  create_atoms CPU = 0.000 seconds
Created 1 atoms
  create_atoms CPU = 0.000 seconds
Created 1 atoms
  create_atoms CPU = 0.000 seconds
Created 1 atoms
  create_atoms CPU = 0.000 seconds
Created 1 atoms
  create_atoms CPU = 0.000 seconds
Created 1 atoms
  create_atoms CPU = 0.000 seconds
Created 1 atoms
  create_atoms CPU = 0.000 seconds
Created 1 atoms
  create_atoms CPU = 0.000 seconds
Created 1 atoms
  create_atoms CPU = 0.000 seconds
Created 1 atoms
  create_atoms CPU = 0.000 seconds
Created 1 atoms
  create_atoms CPU = 0.000 seconds
Created 1 atoms
  create_atoms CPU = 0.000 seconds
Created 1 atoms
  create_atoms CPU = 0.000 seconds
Created 1 atoms
  create_atoms CPU = 0.000 seconds
Created 1 atoms
  create_atoms CPU = 0.000 seconds
Created 1 atoms
  create_atoms CPU = 0.000 seconds
Created 1 atoms
  create_atoms CPU = 0.000 seconds
Created 1 atoms
  create_atoms CPU = 0.000 seconds
Created 1 atoms
  create_atoms CPU = 0.000 seconds
Created 1 atoms
  create_atoms CPU = 0.000 seconds
Created 1 atoms
  create_atoms CPU = 0.000 seconds
Created 1 atoms
  create_atoms CPU = 0.000 seconds
Created 1 atoms
  create_atoms CPU = 0.000 seconds
Created 1 atoms
  create_atoms CPU = 0.000 seconds
Created 1 atoms
  create_atoms CPU = 0.000 seconds
Created 1 atoms
  create_atoms CPU = 0.000 seconds
Created 1 atoms
  create_atoms CPU = 0.000 seconds
Created 1 atoms
  create_atoms CPU = 0.000 seconds
Created 1 atoms
  create_atoms CPU = 0.000 seconds
Created 1 atoms
  create_atoms CPU = 0.000 seconds
Created 1 atoms
  create_atoms CPU = 0.000 seconds
Created 1 atoms
  create_atoms CPU = 0.000 seconds
Created 1 atoms
  create_atoms CPU = 0.000 seconds
Created 1 atoms
  create_atoms CPU = 0.000 seconds
Created 1 atoms
  create_atoms CPU = 0.000 seconds
Created 1 atoms
  create_atoms CPU = 0.000 seconds
Created 1 atoms
  create_atoms CPU = 0.000 seconds
Created 1 atoms
  create_atoms CPU = 0.000 seconds
Created 1 atoms
  create_atoms CPU = 0.000 seconds
Created 1 atoms
  create_atoms CPU = 0.000 seconds
Created 1 atoms
  create_atoms CPU = 0.000 seconds
Created 1 atoms
  create_atoms CPU = 0.000 seconds
Created 1 atoms
  create_atoms CPU = 0.000 seconds
Created 1 atoms
  create_atoms CPU = 0.000 seconds
Created 1 atoms
  create_atoms CPU = 0.000 seconds
Created 1 atoms
  create_atoms CPU = 0.000 seconds
Created 1 atoms
  create_atoms CPU = 0.000 seconds
Created 1 atoms
  create_atoms CPU = 0.000 seconds
Created 1 atoms
  create_atoms CPU = 0.000 seconds
Created 1 atoms
  create_atoms CPU = 0.000 seconds
Created 1 atoms
  create_atoms CPU = 0.000 seconds
Created 1 atoms
  create_atoms CPU = 0.000 seconds
Created 1 atoms
  create_atoms CPU = 0.000 seconds
Created 1 atoms
  create_atoms CPU = 0.000 seconds
Created 1 atoms
  create_atoms CPU = 0.000 seconds
Created 1 atoms
  create_atoms CPU = 0.000 seconds
Created 1 atoms
  create_atoms CPU = 0.000 seconds
Created 1 atoms
  create_atoms CPU = 0.000 seconds
Created 1 atoms
  create_atoms CPU = 0.000 seconds
Created 1 atoms
  create_atoms CPU = 0.000 seconds
Created 1 atoms
  create_atoms CPU = 0.000 seconds
Created 1 atoms
  create_atoms CPU = 0.000 seconds
Created 1 atoms
  create_atoms CPU = 0.000 seconds
Created 1 atoms
  create_atoms CPU = 0.000 seconds
Created 1 atoms
  create_atoms CPU = 0.000 seconds
Created 1 atoms
  create_atoms CPU = 0.000 seconds
Created 1 atoms
  create_atoms CPU = 0.000 seconds
Created 1 atoms
  create_atoms CPU = 0.000 seconds
Created 1 atoms
  create_atoms CPU = 0.000 seconds
Created 1 atoms
  create_atoms CPU = 0.000 seconds
Created 1 atoms
  create_atoms CPU = 0.000 seconds
Created 1 atoms
  create_atoms CPU = 0.000 seconds
Created 1 atoms
  create_atoms CPU = 0.000 seconds
Created 1 atoms
  create_atoms CPU = 0.000 seconds
Created 1 atoms
  create_atoms CPU = 0.000 seconds
Created 1 atoms
  create_atoms CPU = 0.000 seconds
Created 1 atoms
  create_atoms CPU = 0.000 seconds
Created 1 atoms
  create_atoms CPU = 0.000 seconds
Created 1 atoms
  create_atoms CPU = 0.000 seconds
Created 1 atoms
  create_atoms CPU = 0.000 seconds
Created 1 atoms
  create_atoms CPU = 0.000 seconds
Created 1 atoms
  create_atoms CPU = 0.000 seconds
Created 1 atoms
  create_atoms CPU = 0.000 seconds
Created 1 atoms
  create_atoms CPU = 0.000 seconds
Created 1 atoms
  create_atoms CPU = 0.000 seconds
Created 1 atoms
  create_atoms CPU = 0.000 seconds
Created 1 atoms
  create_atoms CPU = 0.000 seconds
Created 1 atoms
  create_atoms CPU = 0.000 seconds
Created 1 atoms
  create_atoms CPU = 0.000 seconds
Created 1 atoms
  create_atoms CPU = 0.000 seconds
Created 1 atoms
  create_atoms CPU = 0.000 seconds
Created 1 atoms
  create_atoms CPU = 0.000 seconds
Created 1 atoms
  create_atoms CPU = 0.000 seconds
Created 1 atoms
  create_atoms CPU = 0.000 seconds
Created 1 atoms
  create_atoms CPU = 0.000 seconds
Created 1 atoms
  create_atoms CPU = 0.000 seconds
Created 1 atoms
  create_atoms CPU = 0.000 seconds
Created 1 atoms
  create_atoms CPU = 0.000 seconds
Created 1 atoms
  create_atoms CPU = 0.000 seconds
Created 1 atoms
  create_atoms CPU = 0.000 seconds
Created 1 atoms
  create_atoms CPU = 0.000 seconds
Created 1 atoms
  create_atoms CPU = 0.000 seconds
Created 1 atoms
  create_atoms CPU = 0.000 seconds
Created 1 atoms
  create_atoms CPU = 0.000 seconds
Created 1 atoms
  create_atoms CPU = 0.000 seconds
Created 1 atoms
  create_atoms CPU = 0.000 seconds
Created 1 atoms
  create_atoms CPU = 0.000 seconds
Created 1 atoms
  create_atoms CPU = 0.000 seconds
Created 1 atoms
  create_atoms CPU = 0.000 seconds
Created 1 atoms
  create_atoms CPU = 0.000 seconds
Created 1 atoms
  create_atoms CPU = 0.000 seconds
Created 1 atoms
  create_atoms CPU = 0.000 seconds
Created 1 atoms
  create_atoms CPU = 0.000 seconds
Created 1 atoms
  create_atoms CPU = 0.000 seconds
Created 1 atoms
  create_atoms CPU = 0.000 seconds
Created 1 atoms
  create_atoms CPU = 0.000 seconds
Created 1 atoms
  create_atoms CPU = 0.000 seconds
Created 1 atoms
  create_atoms CPU = 0.000 seconds
Created 1 atoms
  create_atoms CPU = 0.000 seconds
Created 1 atoms
  create_atoms CPU = 0.000 seconds
Created 1 atoms
  create_atoms CPU = 0.000 seconds
Created 1 atoms
  create_atoms CPU = 0.000 seconds
Created 1 atoms
  create_atoms CPU = 0.000 seconds
Created 1 atoms
  create_atoms CPU = 0.000 seconds
Created 1 atoms
  create_atoms CPU = 0.000 seconds
Created 1 atoms
  create_atoms CPU = 0.000 seconds
Created 1 atoms
  create_atoms CPU = 0.000 seconds
Created 1 atoms
  create_atoms CPU = 0.000 seconds
Created 1 atoms
  create_atoms CPU = 0.000 seconds
Created 1 atoms
  create_atoms CPU = 0.000 seconds
Created 1 atoms
  create_atoms CPU = 0.000 seconds
Created 1 atoms
  create_atoms CPU = 0.000 seconds
Created 1 atoms
  create_atoms CPU = 0.000 seconds
Created 1 atoms
  create_atoms CPU = 0.000 seconds
Created 1 atoms
  create_atoms CPU = 0.000 seconds
Created 1 atoms
  create_atoms CPU = 0.000 seconds
Created 1 atoms
  create_atoms CPU = 0.000 seconds
Created 1 atoms
  create_atoms CPU = 0.000 seconds
Created 1 atoms
  create_atoms CPU = 0.000 seconds
Created 1 atoms
  create_atoms CPU = 0.000 seconds
Created 1 atoms
  create_atoms CPU = 0.000 seconds
Created 1 atoms
  create_atoms CPU = 0.000 seconds
Created 1 atoms
  create_atoms CPU = 0.000 seconds
Created 1 atoms
  create_atoms CPU = 0.000 seconds
Created 1 atoms
  create_atoms CPU = 0.000 seconds
Created 1 atoms
  create_atoms CPU = 0.000 seconds
Created 1 atoms
  create_atoms CPU = 0.000 seconds
Created 1 atoms
  create_atoms CPU = 0.000 seconds
Created 1 atoms
  create_atoms CPU = 0.000 seconds
WARNING: No fixes defined, atoms won't move (src/lammps/src/verlet.cpp:55)
Neighbor list info ...
  update every 1 steps, delay 0 steps, check yes
  max neighbors/atom: 100000, page size: 1000000
  master list distance cutoff = 22
  ghost atom cutoff = 22
  binsize = 11, bins = 5 5 1
  1 neighbor lists, perpetual/occasional/extra = 1 0 0
  (1) pair lj/cut, perpetual
      attributes: half, newton on
      pair build: half/bin/newton
      stencil: half/bin/3d
      bin: standard
Setting up Verlet run ...
  Unit style    : real
  Current step  : 0
  Time step     : 1
Per MPI rank memory allocation (min/avg/max) = 810.4 | 863.8 | 917.3 Mbytes
Step Temp E_pair E_mol TotEng Press 
       0            0          inf            0          inf         -nan 
Loop time of 2.01666e-06 on 2 procs for 0 steps with 10060 atoms

124.0% CPU use with 2 MPI tasks x 1 OpenMP threads

MPI task timing breakdown:
Section |  min time  |  avg time  |  max time  |%varavg| %total
---------------------------------------------------------------
Pair    | 0          | 0          | 0          |   0.0 |  0.00
Bond    | 0          | 0          | 0          |   0.0 |  0.00
Neigh   | 0          | 0          | 0          |   0.0 |  0.00
Comm    | 0          | 0          | 0          |   0.0 |  0.00
Output  | 0          | 0          | 0          |   0.0 |  0.00
Modify  | 0          | 0          | 0          |   0.0 |  0.00
Other   |            | 2.017e-06  |            |       |100.00

Nlocal:        5030.00 ave        5045 max        5015 min
Histogram: 1 0 0 0 0 0 0 0 0 1
Nghost:        95739.5 ave       95970 max       95509 min
Histogram: 1 0 0 0 0 0 0 0 0 1
Neighs:    1.97322e+08 ave 2.10563e+08 max 1.84081e+08 min
Histogram: 1 0 0 0 0 0 0 0 0 1

Total # of neighbors = 3.9464405e+08
Ave neighs/atom = 39229.031
Ave special neighs/atom = 0.0000000
Neighbor list builds = 0
Dangerous builds = 0
Total wall time: 0:00:08
