LAMMPS (14 May 2021)
OMP_NUM_THREADS environment is not set. Defaulting to 1 thread. (src/lammps/src/comm.cpp:98)
  using 1 OpenMP thread(s) per MPI task
Reading data file ...
  orthogonal box = (-25.000000 -25.000000 0.0000000) to (25.000000 25.000000 5.5640000)
  1 by 2 by 1 MPI processor grid
  reading atoms ...
  60 atoms
Finding 1-2 1-3 1-4 neighbors ...
  special bond factors lj:    0        0        0       
  special bond factors coul:  0        0        0       
     0 = max # of 1-2 neighbors
     0 = max # of 1-3 neighbors
     0 = max # of 1-4 neighbors
     1 = max # of special neighbors
  special bonds CPU = 0.001 seconds
  read_data CPU = 0.007 seconds
60 atoms in group NT
Created 1 atoms
  create_atoms CPU = 0.000 seconds
1 atoms in group Ne
WARNING: No fixes defined, atoms won't move (src/lammps/src/verlet.cpp:55)
Neighbor list info ...
  update every 1 steps, delay 0 steps, check yes
  max neighbors/atom: 10000, page size: 100000
  master list distance cutoff = 22
  ghost atom cutoff = 22
  binsize = 11, bins = 5 5 1
  2 neighbor lists, perpetual/occasional/extra = 1 1 0
  (1) pair lj/cut, perpetual
      attributes: half, newton on
      pair build: half/bin/newton
      stencil: half/bin/3d
      bin: standard
  (2) compute group/group, occasional, copy from (1)
      attributes: half, newton on
      pair build: copy
      stencil: none
      bin: none
Setting up Verlet run ...
  Unit style    : real
  Current step  : 1
  Time step     : 1
Per MPI rank memory allocation (min/avg/max) = 7.308 | 7.308 | 7.308 Mbytes
Step Lz c_intEn 
       1        5.564    4553.1431 
Loop time of 6.91538e-06 on 2 procs for 0 steps with 61 atoms

72.3% CPU use with 2 MPI tasks x 1 OpenMP threads

MPI task timing breakdown:
Section |  min time  |  avg time  |  max time  |%varavg| %total
---------------------------------------------------------------
Pair    | 0          | 0          | 0          |   0.0 |  0.00
Bond    | 0          | 0          | 0          |   0.0 |  0.00
Neigh   | 0          | 0          | 0          |   0.0 |  0.00
Comm    | 0          | 0          | 0          |   0.0 |  0.00
Output  | 0          | 0          | 0          |   0.0 |  0.00
Modify  | 0          | 0          | 0          |   0.0 |  0.00
Other   |            | 6.915e-06  |            |       |100.00

Nlocal:        30.5000 ave          31 max          30 min
Histogram: 1 0 0 0 0 0 0 0 0 1
Nghost:        1049.50 ave        1050 max        1049 min
Histogram: 1 0 0 0 0 0 0 0 0 1
Neighs:        6915.00 ave        7273 max        6557 min
Histogram: 1 0 0 0 0 0 0 0 0 1

Total # of neighbors = 13830
Ave neighs/atom = 226.72131
Ave special neighs/atom = 0.0000000
Neighbor list builds = 0
Dangerous builds = 0
Created 1 atoms
  create_atoms CPU = 0.000 seconds
2 atoms in group Ne
WARNING: No fixes defined, atoms won't move (src/lammps/src/verlet.cpp:55)
Neighbor list info ...
  update every 1 steps, delay 0 steps, check yes
  max neighbors/atom: 10000, page size: 100000
  master list distance cutoff = 22
  ghost atom cutoff = 22
  binsize = 11, bins = 5 5 1
  2 neighbor lists, perpetual/occasional/extra = 1 1 0
  (1) pair lj/cut, perpetual
      attributes: half, newton on
      pair build: half/bin/newton
      stencil: half/bin/3d
      bin: standard
  (2) compute group/group, occasional, copy from (1)
      attributes: half, newton on
      pair build: copy
      stencil: none
      bin: none
Setting up Verlet run ...
  Unit style    : real
  Current step  : 2
  Time step     : 1
Per MPI rank memory allocation (min/avg/max) = 7.308 | 7.308 | 7.308 Mbytes
Step Lz c_intEn 
       2        5.564     4569.932 
Loop time of 4.61387e-06 on 2 procs for 0 steps with 62 atoms

65.0% CPU use with 2 MPI tasks x 1 OpenMP threads

MPI task timing breakdown:
Section |  min time  |  avg time  |  max time  |%varavg| %total
---------------------------------------------------------------
Pair    | 0          | 0          | 0          |   0.0 |  0.00
Bond    | 0          | 0          | 0          |   0.0 |  0.00
Neigh   | 0          | 0          | 0          |   0.0 |  0.00
Comm    | 0          | 0          | 0          |   0.0 |  0.00
Output  | 0          | 0          | 0          |   0.0 |  0.00
Modify  | 0          | 0          | 0          |   0.0 |  0.00
Other   |            | 4.614e-06  |            |       |100.00

Nlocal:        31.0000 ave          31 max          31 min
Histogram: 2 0 0 0 0 0 0 0 0 0
Nghost:        1058.00 ave        1058 max        1058 min
Histogram: 2 0 0 0 0 0 0 0 0 0
Neighs:        7152.00 ave        7648 max        6656 min
Histogram: 1 0 0 0 0 0 0 0 0 1

Total # of neighbors = 14304
Ave neighs/atom = 230.70968
Ave special neighs/atom = 0.0000000
Neighbor list builds = 0
Dangerous builds = 0
Created 1 atoms
  create_atoms CPU = 0.000 seconds
3 atoms in group Ne
WARNING: No fixes defined, atoms won't move (src/lammps/src/verlet.cpp:55)
Neighbor list info ...
  update every 1 steps, delay 0 steps, check yes
  max neighbors/atom: 10000, page size: 100000
  master list distance cutoff = 22
  ghost atom cutoff = 22
  binsize = 11, bins = 5 5 1
  2 neighbor lists, perpetual/occasional/extra = 1 1 0
  (1) pair lj/cut, perpetual
      attributes: half, newton on
      pair build: half/bin/newton
      stencil: half/bin/3d
      bin: standard
  (2) compute group/group, occasional, copy from (1)
      attributes: half, newton on
      pair build: copy
      stencil: none
      bin: none
Setting up Verlet run ...
  Unit style    : real
  Current step  : 3
  Time step     : 1
Per MPI rank memory allocation (min/avg/max) = 7.309 | 7.309 | 7.309 Mbytes
Step Lz c_intEn 
       3        5.564    4568.8434 
Loop time of 7.44035e-06 on 2 procs for 0 steps with 63 atoms

114.2% CPU use with 2 MPI tasks x 1 OpenMP threads

MPI task timing breakdown:
Section |  min time  |  avg time  |  max time  |%varavg| %total
---------------------------------------------------------------
Pair    | 0          | 0          | 0          |   0.0 |  0.00
Bond    | 0          | 0          | 0          |   0.0 |  0.00
Neigh   | 0          | 0          | 0          |   0.0 |  0.00
Comm    | 0          | 0          | 0          |   0.0 |  0.00
Output  | 0          | 0          | 0          |   0.0 |  0.00
Modify  | 0          | 0          | 0          |   0.0 |  0.00
Other   |            | 7.44e-06   |            |       |100.00

Nlocal:        31.5000 ave          32 max          31 min
Histogram: 1 0 0 0 0 0 0 0 0 1
Nghost:        1066.50 ave        1067 max        1066 min
Histogram: 1 0 0 0 0 0 0 0 0 1
Neighs:        7389.50 ave        8033 max        6746 min
Histogram: 1 0 0 0 0 0 0 0 0 1

Total # of neighbors = 14779
Ave neighs/atom = 234.58730
Ave special neighs/atom = 0.0000000
Neighbor list builds = 0
Dangerous builds = 0
Created 1 atoms
  create_atoms CPU = 0.000 seconds
4 atoms in group Ne
WARNING: No fixes defined, atoms won't move (src/lammps/src/verlet.cpp:55)
Neighbor list info ...
  update every 1 steps, delay 0 steps, check yes
  max neighbors/atom: 10000, page size: 100000
  master list distance cutoff = 22
  ghost atom cutoff = 22
  binsize = 11, bins = 5 5 1
  2 neighbor lists, perpetual/occasional/extra = 1 1 0
  (1) pair lj/cut, perpetual
      attributes: half, newton on
      pair build: half/bin/newton
      stencil: half/bin/3d
      bin: standard
  (2) compute group/group, occasional, copy from (1)
      attributes: half, newton on
      pair build: copy
      stencil: none
      bin: none
Setting up Verlet run ...
  Unit style    : real
  Current step  : 4
  Time step     : 1
Per MPI rank memory allocation (min/avg/max) = 7.309 | 7.309 | 7.309 Mbytes
Step Lz c_intEn 
       4        5.564    5173.7531 
Loop time of 7.62717e-06 on 2 procs for 0 steps with 64 atoms

111.4% CPU use with 2 MPI tasks x 1 OpenMP threads

MPI task timing breakdown:
Section |  min time  |  avg time  |  max time  |%varavg| %total
---------------------------------------------------------------
Pair    | 0          | 0          | 0          |   0.0 |  0.00
Bond    | 0          | 0          | 0          |   0.0 |  0.00
Neigh   | 0          | 0          | 0          |   0.0 |  0.00
Comm    | 0          | 0          | 0          |   0.0 |  0.00
Output  | 0          | 0          | 0          |   0.0 |  0.00
Modify  | 0          | 0          | 0          |   0.0 |  0.00
Other   |            | 7.627e-06  |            |       |100.00

Nlocal:        32.0000 ave          33 max          31 min
Histogram: 1 0 0 0 0 0 0 0 0 1
Nghost:        1075.00 ave        1076 max        1074 min
Histogram: 1 0 0 0 0 0 0 0 0 1
Neighs:        7632.50 ave        8409 max        6856 min
Histogram: 1 0 0 0 0 0 0 0 0 1

Total # of neighbors = 15265
Ave neighs/atom = 238.51562
Ave special neighs/atom = 0.0000000
Neighbor list builds = 0
Dangerous builds = 0
Created 1 atoms
  create_atoms CPU = 0.000 seconds
5 atoms in group Ne
WARNING: No fixes defined, atoms won't move (src/lammps/src/verlet.cpp:55)
Neighbor list info ...
  update every 1 steps, delay 0 steps, check yes
  max neighbors/atom: 10000, page size: 100000
  master list distance cutoff = 22
  ghost atom cutoff = 22
  binsize = 11, bins = 5 5 1
  2 neighbor lists, perpetual/occasional/extra = 1 1 0
  (1) pair lj/cut, perpetual
      attributes: half, newton on
      pair build: half/bin/newton
      stencil: half/bin/3d
      bin: standard
  (2) compute group/group, occasional, copy from (1)
      attributes: half, newton on
      pair build: copy
      stencil: none
      bin: none
Setting up Verlet run ...
  Unit style    : real
  Current step  : 5
  Time step     : 1
Per MPI rank memory allocation (min/avg/max) = 7.309 | 7.309 | 7.309 Mbytes
Step Lz c_intEn 
       5        5.564    5172.6409 
Loop time of 6.71531e-06 on 2 procs for 0 steps with 65 atoms

104.2% CPU use with 2 MPI tasks x 1 OpenMP threads

MPI task timing breakdown:
Section |  min time  |  avg time  |  max time  |%varavg| %total
---------------------------------------------------------------
Pair    | 0          | 0          | 0          |   0.0 |  0.00
Bond    | 0          | 0          | 0          |   0.0 |  0.00
Neigh   | 0          | 0          | 0          |   0.0 |  0.00
Comm    | 0          | 0          | 0          |   0.0 |  0.00
Output  | 0          | 0          | 0          |   0.0 |  0.00
Modify  | 0          | 0          | 0          |   0.0 |  0.00
Other   |            | 6.715e-06  |            |       |100.00

Nlocal:        32.5000 ave          33 max          32 min
Histogram: 1 0 0 0 0 0 0 0 0 1
Nghost:        1083.50 ave        1084 max        1083 min
Histogram: 1 0 0 0 0 0 0 0 0 1
Neighs:        7879.00 ave        8542 max        7216 min
Histogram: 1 0 0 0 0 0 0 0 0 1

Total # of neighbors = 15758
Ave neighs/atom = 242.43077
Ave special neighs/atom = 0.0000000
Neighbor list builds = 0
Dangerous builds = 0
Created 1 atoms
  create_atoms CPU = 0.000 seconds
6 atoms in group Ne
WARNING: No fixes defined, atoms won't move (src/lammps/src/verlet.cpp:55)
Neighbor list info ...
  update every 1 steps, delay 0 steps, check yes
  max neighbors/atom: 10000, page size: 100000
  master list distance cutoff = 22
  ghost atom cutoff = 22
  binsize = 11, bins = 5 5 1
  2 neighbor lists, perpetual/occasional/extra = 1 1 0
  (1) pair lj/cut, perpetual
      attributes: half, newton on
      pair build: half/bin/newton
      stencil: half/bin/3d
      bin: standard
  (2) compute group/group, occasional, copy from (1)
      attributes: half, newton on
      pair build: copy
      stencil: none
      bin: none
Setting up Verlet run ...
  Unit style    : real
  Current step  : 6
  Time step     : 1
Per MPI rank memory allocation (min/avg/max) = 7.309 | 7.309 | 7.309 Mbytes
Step Lz c_intEn 
       6        5.564    5203.9366 
Loop time of 7.46928e-06 on 2 procs for 0 steps with 66 atoms

66.9% CPU use with 2 MPI tasks x 1 OpenMP threads

MPI task timing breakdown:
Section |  min time  |  avg time  |  max time  |%varavg| %total
---------------------------------------------------------------
Pair    | 0          | 0          | 0          |   0.0 |  0.00
Bond    | 0          | 0          | 0          |   0.0 |  0.00
Neigh   | 0          | 0          | 0          |   0.0 |  0.00
Comm    | 0          | 0          | 0          |   0.0 |  0.00
Output  | 0          | 0          | 0          |   0.0 |  0.00
Modify  | 0          | 0          | 0          |   0.0 |  0.00
Other   |            | 7.469e-06  |            |       |100.00

Nlocal:        33.0000 ave          34 max          32 min
Histogram: 1 0 0 0 0 0 0 0 0 1
Nghost:        1092.00 ave        1093 max        1091 min
Histogram: 1 0 0 0 0 0 0 0 0 1
Neighs:        8130.50 ave        8944 max        7317 min
Histogram: 1 0 0 0 0 0 0 0 0 1

Total # of neighbors = 16261
Ave neighs/atom = 246.37879
Ave special neighs/atom = 0.0000000
Neighbor list builds = 0
Dangerous builds = 0
Created 1 atoms
  create_atoms CPU = 0.000 seconds
7 atoms in group Ne
WARNING: No fixes defined, atoms won't move (src/lammps/src/verlet.cpp:55)
Neighbor list info ...
  update every 1 steps, delay 0 steps, check yes
  max neighbors/atom: 10000, page size: 100000
  master list distance cutoff = 22
  ghost atom cutoff = 22
  binsize = 11, bins = 5 5 1
  2 neighbor lists, perpetual/occasional/extra = 1 1 0
  (1) pair lj/cut, perpetual
      attributes: half, newton on
      pair build: half/bin/newton
      stencil: half/bin/3d
      bin: standard
  (2) compute group/group, occasional, copy from (1)
      attributes: half, newton on
      pair build: copy
      stencil: none
      bin: none
Setting up Verlet run ...
  Unit style    : real
  Current step  : 7
  Time step     : 1
Per MPI rank memory allocation (min/avg/max) = 7.309 | 7.309 | 7.309 Mbytes
Step Lz c_intEn 
       7        5.564    6259.2034 
Loop time of 5.13075e-06 on 2 procs for 0 steps with 67 atoms

68.2% CPU use with 2 MPI tasks x 1 OpenMP threads

MPI task timing breakdown:
Section |  min time  |  avg time  |  max time  |%varavg| %total
---------------------------------------------------------------
Pair    | 0          | 0          | 0          |   0.0 |  0.00
Bond    | 0          | 0          | 0          |   0.0 |  0.00
Neigh   | 0          | 0          | 0          |   0.0 |  0.00
Comm    | 0          | 0          | 0          |   0.0 |  0.00
Output  | 0          | 0          | 0          |   0.0 |  0.00
Modify  | 0          | 0          | 0          |   0.0 |  0.00
Other   |            | 5.131e-06  |            |       |100.00

Nlocal:        33.5000 ave          34 max          33 min
Histogram: 1 0 0 0 0 0 0 0 0 1
Nghost:        1109.50 ave        1110 max        1109 min
Histogram: 1 0 0 0 0 0 0 0 0 1
Neighs:        8384.50 ave        9088 max        7681 min
Histogram: 1 0 0 0 0 0 0 0 0 1

Total # of neighbors = 16769
Ave neighs/atom = 250.28358
Ave special neighs/atom = 0.0000000
Neighbor list builds = 0
Dangerous builds = 0
Created 1 atoms
  create_atoms CPU = 0.000 seconds
8 atoms in group Ne
WARNING: No fixes defined, atoms won't move (src/lammps/src/verlet.cpp:55)
Neighbor list info ...
  update every 1 steps, delay 0 steps, check yes
  max neighbors/atom: 10000, page size: 100000
  master list distance cutoff = 22
  ghost atom cutoff = 22
  binsize = 11, bins = 5 5 1
  2 neighbor lists, perpetual/occasional/extra = 1 1 0
  (1) pair lj/cut, perpetual
      attributes: half, newton on
      pair build: half/bin/newton
      stencil: half/bin/3d
      bin: standard
  (2) compute group/group, occasional, copy from (1)
      attributes: half, newton on
      pair build: copy
      stencil: none
      bin: none
Setting up Verlet run ...
  Unit style    : real
  Current step  : 8
  Time step     : 1
Per MPI rank memory allocation (min/avg/max) = 7.309 | 7.310 | 7.310 Mbytes
Step Lz c_intEn 
       8        5.564    6306.1317 
Loop time of 5.53709e-06 on 2 procs for 0 steps with 68 atoms

99.3% CPU use with 2 MPI tasks x 1 OpenMP threads

MPI task timing breakdown:
Section |  min time  |  avg time  |  max time  |%varavg| %total
---------------------------------------------------------------
Pair    | 0          | 0          | 0          |   0.0 |  0.00
Bond    | 0          | 0          | 0          |   0.0 |  0.00
Neigh   | 0          | 0          | 0          |   0.0 |  0.00
Comm    | 0          | 0          | 0          |   0.0 |  0.00
Output  | 0          | 0          | 0          |   0.0 |  0.00
Modify  | 0          | 0          | 0          |   0.0 |  0.00
Other   |            | 5.537e-06  |            |       |100.00

Nlocal:        34.0000 ave          34 max          34 min
Histogram: 2 0 0 0 0 0 0 0 0 0
Nghost:        1118.00 ave        1118 max        1118 min
Histogram: 2 0 0 0 0 0 0 0 0 0
Neighs:        8641.50 ave        9227 max        8056 min
Histogram: 1 0 0 0 0 0 0 0 0 1

Total # of neighbors = 17283
Ave neighs/atom = 254.16176
Ave special neighs/atom = 0.0000000
Neighbor list builds = 0
Dangerous builds = 0
Created 1 atoms
  create_atoms CPU = 0.000 seconds
9 atoms in group Ne
WARNING: No fixes defined, atoms won't move (src/lammps/src/verlet.cpp:55)
Neighbor list info ...
  update every 1 steps, delay 0 steps, check yes
  max neighbors/atom: 10000, page size: 100000
  master list distance cutoff = 22
  ghost atom cutoff = 22
  binsize = 11, bins = 5 5 1
  2 neighbor lists, perpetual/occasional/extra = 1 1 0
  (1) pair lj/cut, perpetual
      attributes: half, newton on
      pair build: half/bin/newton
      stencil: half/bin/3d
      bin: standard
  (2) compute group/group, occasional, copy from (1)
      attributes: half, newton on
      pair build: copy
      stencil: none
      bin: none
Setting up Verlet run ...
  Unit style    : real
  Current step  : 9
  Time step     : 1
Per MPI rank memory allocation (min/avg/max) = 7.318 | 7.318 | 7.318 Mbytes
Step Lz c_intEn 
       9        5.564    6325.5198 
Loop time of 6.69947e-06 on 2 procs for 0 steps with 69 atoms

74.6% CPU use with 2 MPI tasks x 1 OpenMP threads

MPI task timing breakdown:
Section |  min time  |  avg time  |  max time  |%varavg| %total
---------------------------------------------------------------
Pair    | 0          | 0          | 0          |   0.0 |  0.00
Bond    | 0          | 0          | 0          |   0.0 |  0.00
Neigh   | 0          | 0          | 0          |   0.0 |  0.00
Comm    | 0          | 0          | 0          |   0.0 |  0.00
Output  | 0          | 0          | 0          |   0.0 |  0.00
Modify  | 0          | 0          | 0          |   0.0 |  0.00
Other   |            | 6.699e-06  |            |       |100.00

Nlocal:        34.5000 ave          35 max          34 min
Histogram: 1 0 0 0 0 0 0 0 0 1
Nghost:        1126.50 ave        1127 max        1126 min
Histogram: 1 0 0 0 0 0 0 0 0 1
Neighs:        8900.50 ave        9627 max        8174 min
Histogram: 1 0 0 0 0 0 0 0 0 1

Total # of neighbors = 17801
Ave neighs/atom = 257.98551
Ave special neighs/atom = 0.0000000
Neighbor list builds = 0
Dangerous builds = 0
Created 1 atoms
  create_atoms CPU = 0.000 seconds
10 atoms in group Ne
WARNING: No fixes defined, atoms won't move (src/lammps/src/verlet.cpp:55)
Neighbor list info ...
  update every 1 steps, delay 0 steps, check yes
  max neighbors/atom: 10000, page size: 100000
  master list distance cutoff = 22
  ghost atom cutoff = 22
  binsize = 11, bins = 5 5 1
  2 neighbor lists, perpetual/occasional/extra = 1 1 0
  (1) pair lj/cut, perpetual
      attributes: half, newton on
      pair build: half/bin/newton
      stencil: half/bin/3d
      bin: standard
  (2) compute group/group, occasional, copy from (1)
      attributes: half, newton on
      pair build: copy
      stencil: none
      bin: none
Setting up Verlet run ...
  Unit style    : real
  Current step  : 10
  Time step     : 1
Per MPI rank memory allocation (min/avg/max) = 7.318 | 7.318 | 7.318 Mbytes
Step Lz c_intEn 
      10        5.564    6402.6533 
Loop time of 6.63129e-06 on 2 procs for 0 steps with 70 atoms

67.9% CPU use with 2 MPI tasks x 1 OpenMP threads

MPI task timing breakdown:
Section |  min time  |  avg time  |  max time  |%varavg| %total
---------------------------------------------------------------
Pair    | 0          | 0          | 0          |   0.0 |  0.00
Bond    | 0          | 0          | 0          |   0.0 |  0.00
Neigh   | 0          | 0          | 0          |   0.0 |  0.00
Comm    | 0          | 0          | 0          |   0.0 |  0.00
Output  | 0          | 0          | 0          |   0.0 |  0.00
Modify  | 0          | 0          | 0          |   0.0 |  0.00
Other   |            | 6.631e-06  |            |       |100.00

Nlocal:        35.0000 ave          35 max          35 min
Histogram: 2 0 0 0 0 0 0 0 0 0
Nghost:        1135.00 ave        1135 max        1135 min
Histogram: 2 0 0 0 0 0 0 0 0 0
Neighs:        9166.50 ave        9790 max        8543 min
Histogram: 1 0 0 0 0 0 0 0 0 1

Total # of neighbors = 18333
Ave neighs/atom = 261.90000
Ave special neighs/atom = 0.0000000
Neighbor list builds = 0
Dangerous builds = 0
Created 1 atoms
  create_atoms CPU = 0.000 seconds
11 atoms in group Ne
WARNING: No fixes defined, atoms won't move (src/lammps/src/verlet.cpp:55)
Neighbor list info ...
  update every 1 steps, delay 0 steps, check yes
  max neighbors/atom: 10000, page size: 100000
  master list distance cutoff = 22
  ghost atom cutoff = 22
  binsize = 11, bins = 5 5 1
  2 neighbor lists, perpetual/occasional/extra = 1 1 0
  (1) pair lj/cut, perpetual
      attributes: half, newton on
      pair build: half/bin/newton
      stencil: half/bin/3d
      bin: standard
  (2) compute group/group, occasional, copy from (1)
      attributes: half, newton on
      pair build: copy
      stencil: none
      bin: none
Setting up Verlet run ...
  Unit style    : real
  Current step  : 11
  Time step     : 1
Per MPI rank memory allocation (min/avg/max) = 7.318 | 7.318 | 7.318 Mbytes
Step Lz c_intEn 
      11        5.564    12286.372 
Loop time of 5.86061e-06 on 2 procs for 0 steps with 71 atoms

128.0% CPU use with 2 MPI tasks x 1 OpenMP threads

MPI task timing breakdown:
Section |  min time  |  avg time  |  max time  |%varavg| %total
---------------------------------------------------------------
Pair    | 0          | 0          | 0          |   0.0 |  0.00
Bond    | 0          | 0          | 0          |   0.0 |  0.00
Neigh   | 0          | 0          | 0          |   0.0 |  0.00
Comm    | 0          | 0          | 0          |   0.0 |  0.00
Output  | 0          | 0          | 0          |   0.0 |  0.00
Modify  | 0          | 0          | 0          |   0.0 |  0.00
Other   |            | 5.861e-06  |            |       |100.00

Nlocal:        35.5000 ave          36 max          35 min
Histogram: 1 0 0 0 0 0 0 0 0 1
Nghost:        1148.00 ave        1153 max        1143 min
Histogram: 1 0 0 0 0 0 0 0 0 1
Neighs:        9435.50 ave       10211 max        8660 min
Histogram: 1 0 0 0 0 0 0 0 0 1

Total # of neighbors = 18871
Ave neighs/atom = 265.78873
Ave special neighs/atom = 0.0000000
Neighbor list builds = 0
Dangerous builds = 0
Created 1 atoms
  create_atoms CPU = 0.000 seconds
12 atoms in group Ne
WARNING: No fixes defined, atoms won't move (src/lammps/src/verlet.cpp:55)
Neighbor list info ...
  update every 1 steps, delay 0 steps, check yes
  max neighbors/atom: 10000, page size: 100000
  master list distance cutoff = 22
  ghost atom cutoff = 22
  binsize = 11, bins = 5 5 1
  2 neighbor lists, perpetual/occasional/extra = 1 1 0
  (1) pair lj/cut, perpetual
      attributes: half, newton on
      pair build: half/bin/newton
      stencil: half/bin/3d
      bin: standard
  (2) compute group/group, occasional, copy from (1)
      attributes: half, newton on
      pair build: copy
      stencil: none
      bin: none
Setting up Verlet run ...
  Unit style    : real
  Current step  : 12
  Time step     : 1
Per MPI rank memory allocation (min/avg/max) = 7.318 | 7.318 | 7.318 Mbytes
Step Lz c_intEn 
      12        5.564    12285.393 
Loop time of 5.7487e-06 on 2 procs for 0 steps with 72 atoms

121.8% CPU use with 2 MPI tasks x 1 OpenMP threads

MPI task timing breakdown:
Section |  min time  |  avg time  |  max time  |%varavg| %total
---------------------------------------------------------------
Pair    | 0          | 0          | 0          |   0.0 |  0.00
Bond    | 0          | 0          | 0          |   0.0 |  0.00
Neigh   | 0          | 0          | 0          |   0.0 |  0.00
Comm    | 0          | 0          | 0          |   0.0 |  0.00
Output  | 0          | 0          | 0          |   0.0 |  0.00
Modify  | 0          | 0          | 0          |   0.0 |  0.00
Other   |            | 5.749e-06  |            |       |100.00

Nlocal:        36.0000 ave          37 max          35 min
Histogram: 1 0 0 0 0 0 0 0 0 1
Nghost:        1156.50 ave        1162 max        1151 min
Histogram: 1 0 0 0 0 0 0 0 0 1
Neighs:        9709.00 ave       10658 max        8760 min
Histogram: 1 0 0 0 0 0 0 0 0 1

Total # of neighbors = 19418
Ave neighs/atom = 269.69444
Ave special neighs/atom = 0.0000000
Neighbor list builds = 0
Dangerous builds = 0
Created 1 atoms
  create_atoms CPU = 0.000 seconds
13 atoms in group Ne
WARNING: No fixes defined, atoms won't move (src/lammps/src/verlet.cpp:55)
Neighbor list info ...
  update every 1 steps, delay 0 steps, check yes
  max neighbors/atom: 10000, page size: 100000
  master list distance cutoff = 22
  ghost atom cutoff = 22
  binsize = 11, bins = 5 5 1
  2 neighbor lists, perpetual/occasional/extra = 1 1 0
  (1) pair lj/cut, perpetual
      attributes: half, newton on
      pair build: half/bin/newton
      stencil: half/bin/3d
      bin: standard
  (2) compute group/group, occasional, copy from (1)
      attributes: half, newton on
      pair build: copy
      stencil: none
      bin: none
Setting up Verlet run ...
  Unit style    : real
  Current step  : 13
  Time step     : 1
Per MPI rank memory allocation (min/avg/max) = 7.318 | 7.318 | 7.318 Mbytes
Step Lz c_intEn 
      13        5.564    12604.139 
Loop time of 5.56929e-06 on 2 procs for 0 steps with 73 atoms

89.8% CPU use with 2 MPI tasks x 1 OpenMP threads

MPI task timing breakdown:
Section |  min time  |  avg time  |  max time  |%varavg| %total
---------------------------------------------------------------
Pair    | 0          | 0          | 0          |   0.0 |  0.00
Bond    | 0          | 0          | 0          |   0.0 |  0.00
Neigh   | 0          | 0          | 0          |   0.0 |  0.00
Comm    | 0          | 0          | 0          |   0.0 |  0.00
Output  | 0          | 0          | 0          |   0.0 |  0.00
Modify  | 0          | 0          | 0          |   0.0 |  0.00
Other   |            | 5.569e-06  |            |       |100.00

Nlocal:        36.5000 ave          38 max          35 min
Histogram: 1 0 0 0 0 0 0 0 0 1
Nghost:        1165.00 ave        1171 max        1159 min
Histogram: 1 0 0 0 0 0 0 0 0 1
Neighs:        9983.50 ave       11088 max        8879 min
Histogram: 1 0 0 0 0 0 0 0 0 1

Total # of neighbors = 19967
Ave neighs/atom = 273.52055
Ave special neighs/atom = 0.0000000
Neighbor list builds = 0
Dangerous builds = 0
Created 1 atoms
  create_atoms CPU = 0.000 seconds
14 atoms in group Ne
WARNING: No fixes defined, atoms won't move (src/lammps/src/verlet.cpp:55)
Neighbor list info ...
  update every 1 steps, delay 0 steps, check yes
  max neighbors/atom: 10000, page size: 100000
  master list distance cutoff = 22
  ghost atom cutoff = 22
  binsize = 11, bins = 5 5 1
  2 neighbor lists, perpetual/occasional/extra = 1 1 0
  (1) pair lj/cut, perpetual
      attributes: half, newton on
      pair build: half/bin/newton
      stencil: half/bin/3d
      bin: standard
  (2) compute group/group, occasional, copy from (1)
      attributes: half, newton on
      pair build: copy
      stencil: none
      bin: none
Setting up Verlet run ...
  Unit style    : real
  Current step  : 14
  Time step     : 1
Per MPI rank memory allocation (min/avg/max) = 7.318 | 7.319 | 7.319 Mbytes
Step Lz c_intEn 
      14        5.564    12607.458 
Loop time of 5.71116e-06 on 2 procs for 0 steps with 74 atoms

96.3% CPU use with 2 MPI tasks x 1 OpenMP threads

MPI task timing breakdown:
Section |  min time  |  avg time  |  max time  |%varavg| %total
---------------------------------------------------------------
Pair    | 0          | 0          | 0          |   0.0 |  0.00
Bond    | 0          | 0          | 0          |   0.0 |  0.00
Neigh   | 0          | 0          | 0          |   0.0 |  0.00
Comm    | 0          | 0          | 0          |   0.0 |  0.00
Output  | 0          | 0          | 0          |   0.0 |  0.00
Modify  | 0          | 0          | 0          |   0.0 |  0.00
Other   |            | 5.711e-06  |            |       |100.00

Nlocal:        37.0000 ave          38 max          36 min
Histogram: 1 0 0 0 0 0 0 0 0 1
Nghost:        1173.50 ave        1179 max        1168 min
Histogram: 1 0 0 0 0 0 0 0 0 1
Neighs:        10262.5 ave       11255 max        9270 min
Histogram: 1 0 0 0 0 0 0 0 0 1

Total # of neighbors = 20525
Ave neighs/atom = 277.36486
Ave special neighs/atom = 0.0000000
Neighbor list builds = 0
Dangerous builds = 0
Created 1 atoms
  create_atoms CPU = 0.000 seconds
15 atoms in group Ne
WARNING: No fixes defined, atoms won't move (src/lammps/src/verlet.cpp:55)
Neighbor list info ...
  update every 1 steps, delay 0 steps, check yes
  max neighbors/atom: 10000, page size: 100000
  master list distance cutoff = 22
  ghost atom cutoff = 22
  binsize = 11, bins = 5 5 1
  2 neighbor lists, perpetual/occasional/extra = 1 1 0
  (1) pair lj/cut, perpetual
      attributes: half, newton on
      pair build: half/bin/newton
      stencil: half/bin/3d
      bin: standard
  (2) compute group/group, occasional, copy from (1)
      attributes: half, newton on
      pair build: copy
      stencil: none
      bin: none
Setting up Verlet run ...
  Unit style    : real
  Current step  : 15
  Time step     : 1
Per MPI rank memory allocation (min/avg/max) = 7.319 | 7.319 | 7.319 Mbytes
Step Lz c_intEn 
      15        5.564    12912.121 
Loop time of 5.77848e-06 on 2 procs for 0 steps with 75 atoms

95.2% CPU use with 2 MPI tasks x 1 OpenMP threads

MPI task timing breakdown:
Section |  min time  |  avg time  |  max time  |%varavg| %total
---------------------------------------------------------------
Pair    | 0          | 0          | 0          |   0.0 |  0.00
Bond    | 0          | 0          | 0          |   0.0 |  0.00
Neigh   | 0          | 0          | 0          |   0.0 |  0.00
Comm    | 0          | 0          | 0          |   0.0 |  0.00
Output  | 0          | 0          | 0          |   0.0 |  0.00
Modify  | 0          | 0          | 0          |   0.0 |  0.00
Other   |            | 5.778e-06  |            |       |100.00

Nlocal:        37.5000 ave          39 max          36 min
Histogram: 1 0 0 0 0 0 0 0 0 1
Nghost:        1182.00 ave        1188 max        1176 min
Histogram: 1 0 0 0 0 0 0 0 0 1
Neighs:        10545.0 ave       11716 max        9374 min
Histogram: 1 0 0 0 0 0 0 0 0 1

Total # of neighbors = 21090
Ave neighs/atom = 281.20000
Ave special neighs/atom = 0.0000000
Neighbor list builds = 0
Dangerous builds = 0
Created 1 atoms
  create_atoms CPU = 0.000 seconds
16 atoms in group Ne
WARNING: No fixes defined, atoms won't move (src/lammps/src/verlet.cpp:55)
Neighbor list info ...
  update every 1 steps, delay 0 steps, check yes
  max neighbors/atom: 10000, page size: 100000
  master list distance cutoff = 22
  ghost atom cutoff = 22
  binsize = 11, bins = 5 5 1
  2 neighbor lists, perpetual/occasional/extra = 1 1 0
  (1) pair lj/cut, perpetual
      attributes: half, newton on
      pair build: half/bin/newton
      stencil: half/bin/3d
      bin: standard
  (2) compute group/group, occasional, copy from (1)
      attributes: half, newton on
      pair build: copy
      stencil: none
      bin: none
Setting up Verlet run ...
  Unit style    : real
  Current step  : 16
  Time step     : 1
Per MPI rank memory allocation (min/avg/max) = 7.319 | 7.319 | 7.319 Mbytes
Step Lz c_intEn 
      16        5.564    12915.901 
Loop time of 7.62166e-06 on 2 procs for 0 steps with 76 atoms

98.4% CPU use with 2 MPI tasks x 1 OpenMP threads

MPI task timing breakdown:
Section |  min time  |  avg time  |  max time  |%varavg| %total
---------------------------------------------------------------
Pair    | 0          | 0          | 0          |   0.0 |  0.00
Bond    | 0          | 0          | 0          |   0.0 |  0.00
Neigh   | 0          | 0          | 0          |   0.0 |  0.00
Comm    | 0          | 0          | 0          |   0.0 |  0.00
Output  | 0          | 0          | 0          |   0.0 |  0.00
Modify  | 0          | 0          | 0          |   0.0 |  0.00
Other   |            | 7.622e-06  |            |       |100.00

Nlocal:        38.0000 ave          39 max          37 min
Histogram: 1 0 0 0 0 0 0 0 0 1
Nghost:        1190.50 ave        1196 max        1185 min
Histogram: 1 0 0 0 0 0 0 0 0 1
Neighs:        10831.0 ave       11889 max        9773 min
Histogram: 1 0 0 0 0 0 0 0 0 1

Total # of neighbors = 21662
Ave neighs/atom = 285.02632
Ave special neighs/atom = 0.0000000
Neighbor list builds = 0
Dangerous builds = 0
Created 1 atoms
  create_atoms CPU = 0.000 seconds
17 atoms in group Ne
WARNING: No fixes defined, atoms won't move (src/lammps/src/verlet.cpp:55)
Neighbor list info ...
  update every 1 steps, delay 0 steps, check yes
  max neighbors/atom: 10000, page size: 100000
  master list distance cutoff = 22
  ghost atom cutoff = 22
  binsize = 11, bins = 5 5 1
  2 neighbor lists, perpetual/occasional/extra = 1 1 0
  (1) pair lj/cut, perpetual
      attributes: half, newton on
      pair build: half/bin/newton
      stencil: half/bin/3d
      bin: standard
  (2) compute group/group, occasional, copy from (1)
      attributes: half, newton on
      pair build: copy
      stencil: none
      bin: none
Setting up Verlet run ...
  Unit style    : real
  Current step  : 17
  Time step     : 1
Per MPI rank memory allocation (min/avg/max) = 7.319 | 7.319 | 7.319 Mbytes
Step Lz c_intEn 
      17        5.564     12916.61 
Loop time of 5.20995e-06 on 2 procs for 0 steps with 77 atoms

96.0% CPU use with 2 MPI tasks x 1 OpenMP threads

MPI task timing breakdown:
Section |  min time  |  avg time  |  max time  |%varavg| %total
---------------------------------------------------------------
Pair    | 0          | 0          | 0          |   0.0 |  0.00
Bond    | 0          | 0          | 0          |   0.0 |  0.00
Neigh   | 0          | 0          | 0          |   0.0 |  0.00
Comm    | 0          | 0          | 0          |   0.0 |  0.00
Output  | 0          | 0          | 0          |   0.0 |  0.00
Modify  | 0          | 0          | 0          |   0.0 |  0.00
Other   |            | 5.21e-06   |            |       |100.00

Nlocal:        38.5000 ave          40 max          37 min
Histogram: 1 0 0 0 0 0 0 0 0 1
Nghost:        1199.00 ave        1205 max        1193 min
Histogram: 1 0 0 0 0 0 0 0 0 1
Neighs:        11126.5 ave       12361 max        9892 min
Histogram: 1 0 0 0 0 0 0 0 0 1

Total # of neighbors = 22253
Ave neighs/atom = 289.00000
Ave special neighs/atom = 0.0000000
Neighbor list builds = 0
Dangerous builds = 0
Created 1 atoms
  create_atoms CPU = 0.000 seconds
18 atoms in group Ne
WARNING: No fixes defined, atoms won't move (src/lammps/src/verlet.cpp:55)
Neighbor list info ...
  update every 1 steps, delay 0 steps, check yes
  max neighbors/atom: 10000, page size: 100000
  master list distance cutoff = 22
  ghost atom cutoff = 22
  binsize = 11, bins = 5 5 1
  2 neighbor lists, perpetual/occasional/extra = 1 1 0
  (1) pair lj/cut, perpetual
      attributes: half, newton on
      pair build: half/bin/newton
      stencil: half/bin/3d
      bin: standard
  (2) compute group/group, occasional, copy from (1)
      attributes: half, newton on
      pair build: copy
      stencil: none
      bin: none
Setting up Verlet run ...
  Unit style    : real
  Current step  : 18
  Time step     : 1
Per MPI rank memory allocation (min/avg/max) = 7.319 | 7.319 | 7.319 Mbytes
Step Lz c_intEn 
      18        5.564     12915.36 
Loop time of 5.73028e-06 on 2 procs for 0 steps with 78 atoms

122.2% CPU use with 2 MPI tasks x 1 OpenMP threads

MPI task timing breakdown:
Section |  min time  |  avg time  |  max time  |%varavg| %total
---------------------------------------------------------------
Pair    | 0          | 0          | 0          |   0.0 |  0.00
Bond    | 0          | 0          | 0          |   0.0 |  0.00
Neigh   | 0          | 0          | 0          |   0.0 |  0.00
Comm    | 0          | 0          | 0          |   0.0 |  0.00
Output  | 0          | 0          | 0          |   0.0 |  0.00
Modify  | 0          | 0          | 0          |   0.0 |  0.00
Other   |            | 5.73e-06   |            |       |100.00

Nlocal:        39.0000 ave          41 max          37 min
Histogram: 1 0 0 0 0 0 0 0 0 1
Nghost:        1207.50 ave        1214 max        1201 min
Histogram: 1 0 0 0 0 0 0 0 0 1
Neighs:        11423.5 ave       12844 max       10003 min
Histogram: 1 0 0 0 0 0 0 0 0 1

Total # of neighbors = 22847
Ave neighs/atom = 292.91026
Ave special neighs/atom = 0.0000000
Neighbor list builds = 0
Dangerous builds = 0
Created 1 atoms
  create_atoms CPU = 0.000 seconds
19 atoms in group Ne
WARNING: No fixes defined, atoms won't move (src/lammps/src/verlet.cpp:55)
Neighbor list info ...
  update every 1 steps, delay 0 steps, check yes
  max neighbors/atom: 10000, page size: 100000
  master list distance cutoff = 22
  ghost atom cutoff = 22
  binsize = 11, bins = 5 5 1
  2 neighbor lists, perpetual/occasional/extra = 1 1 0
  (1) pair lj/cut, perpetual
      attributes: half, newton on
      pair build: half/bin/newton
      stencil: half/bin/3d
      bin: standard
  (2) compute group/group, occasional, copy from (1)
      attributes: half, newton on
      pair build: copy
      stencil: none
      bin: none
Setting up Verlet run ...
  Unit style    : real
  Current step  : 19
  Time step     : 1
Per MPI rank memory allocation (min/avg/max) = 7.319 | 7.319 | 7.319 Mbytes
Step Lz c_intEn 
      19        5.564    12931.241 
Loop time of 5.39367e-06 on 2 procs for 0 steps with 79 atoms

120.5% CPU use with 2 MPI tasks x 1 OpenMP threads

MPI task timing breakdown:
Section |  min time  |  avg time  |  max time  |%varavg| %total
---------------------------------------------------------------
Pair    | 0          | 0          | 0          |   0.0 |  0.00
Bond    | 0          | 0          | 0          |   0.0 |  0.00
Neigh   | 0          | 0          | 0          |   0.0 |  0.00
Comm    | 0          | 0          | 0          |   0.0 |  0.00
Output  | 0          | 0          | 0          |   0.0 |  0.00
Modify  | 0          | 0          | 0          |   0.0 |  0.00
Other   |            | 5.394e-06  |            |       |100.00

Nlocal:        39.5000 ave          42 max          37 min
Histogram: 1 0 0 0 0 0 0 0 0 1
Nghost:        1215.00 ave        1222 max        1208 min
Histogram: 1 0 0 0 0 0 0 0 0 1
Neighs:        11726.5 ave       13345 max       10108 min
Histogram: 1 0 0 0 0 0 0 0 0 1

Total # of neighbors = 23453
Ave neighs/atom = 296.87342
Ave special neighs/atom = 0.0000000
Neighbor list builds = 0
Dangerous builds = 0
Created 1 atoms
  create_atoms CPU = 0.000 seconds
20 atoms in group Ne
WARNING: No fixes defined, atoms won't move (src/lammps/src/verlet.cpp:55)
Neighbor list info ...
  update every 1 steps, delay 0 steps, check yes
  max neighbors/atom: 10000, page size: 100000
  master list distance cutoff = 22
  ghost atom cutoff = 22
  binsize = 11, bins = 5 5 1
  2 neighbor lists, perpetual/occasional/extra = 1 1 0
  (1) pair lj/cut, perpetual
      attributes: half, newton on
      pair build: half/bin/newton
      stencil: half/bin/3d
      bin: standard
  (2) compute group/group, occasional, copy from (1)
      attributes: half, newton on
      pair build: copy
      stencil: none
      bin: none
Setting up Verlet run ...
  Unit style    : real
  Current step  : 20
  Time step     : 1
Per MPI rank memory allocation (min/avg/max) = 7.320 | 7.320 | 7.320 Mbytes
Step Lz c_intEn 
      20        5.564    14305.858 
Loop time of 8.63441e-06 on 2 procs for 0 steps with 80 atoms

98.4% CPU use with 2 MPI tasks x 1 OpenMP threads

MPI task timing breakdown:
Section |  min time  |  avg time  |  max time  |%varavg| %total
---------------------------------------------------------------
Pair    | 0          | 0          | 0          |   0.0 |  0.00
Bond    | 0          | 0          | 0          |   0.0 |  0.00
Neigh   | 0          | 0          | 0          |   0.0 |  0.00
Comm    | 0          | 0          | 0          |   0.0 |  0.00
Output  | 0          | 0          | 0          |   0.0 |  0.00
Modify  | 0          | 0          | 0          |   0.0 |  0.00
Other   |            | 8.634e-06  |            |       |100.00

Nlocal:        40.0000 ave          43 max          37 min
Histogram: 1 0 0 0 0 0 0 0 0 1
Nghost:        1222.50 ave        1230 max        1215 min
Histogram: 1 0 0 0 0 0 0 0 0 1
Neighs:        12032.0 ave       13851 max       10213 min
Histogram: 1 0 0 0 0 0 0 0 0 1

Total # of neighbors = 24064
Ave neighs/atom = 300.80000
Ave special neighs/atom = 0.0000000
Neighbor list builds = 0
Dangerous builds = 0
Created 1 atoms
  create_atoms CPU = 0.000 seconds
21 atoms in group Ne
WARNING: No fixes defined, atoms won't move (src/lammps/src/verlet.cpp:55)
Neighbor list info ...
  update every 1 steps, delay 0 steps, check yes
  max neighbors/atom: 10000, page size: 100000
  master list distance cutoff = 22
  ghost atom cutoff = 22
  binsize = 11, bins = 5 5 1
  2 neighbor lists, perpetual/occasional/extra = 1 1 0
  (1) pair lj/cut, perpetual
      attributes: half, newton on
      pair build: half/bin/newton
      stencil: half/bin/3d
      bin: standard
  (2) compute group/group, occasional, copy from (1)
      attributes: half, newton on
      pair build: copy
      stencil: none
      bin: none
Setting up Verlet run ...
  Unit style    : real
  Current step  : 21
  Time step     : 1
Per MPI rank memory allocation (min/avg/max) = 7.320 | 7.320 | 7.320 Mbytes
Step Lz c_intEn 
      21        5.564    14304.527 
Loop time of 3.5028e-06 on 2 procs for 0 steps with 81 atoms

85.6% CPU use with 2 MPI tasks x 1 OpenMP threads

MPI task timing breakdown:
Section |  min time  |  avg time  |  max time  |%varavg| %total
---------------------------------------------------------------
Pair    | 0          | 0          | 0          |   0.0 |  0.00
Bond    | 0          | 0          | 0          |   0.0 |  0.00
Neigh   | 0          | 0          | 0          |   0.0 |  0.00
Comm    | 0          | 0          | 0          |   0.0 |  0.00
Output  | 0          | 0          | 0          |   0.0 |  0.00
Modify  | 0          | 0          | 0          |   0.0 |  0.00
Other   |            | 3.503e-06  |            |       |100.00

Nlocal:        40.5000 ave          43 max          38 min
Histogram: 1 0 0 0 0 0 0 0 0 1
Nghost:        1231.00 ave        1238 max        1224 min
Histogram: 1 0 0 0 0 0 0 0 0 1
Neighs:        12345.0 ave       14055 max       10635 min
Histogram: 1 0 0 0 0 0 0 0 0 1

Total # of neighbors = 24690
Ave neighs/atom = 304.81481
Ave special neighs/atom = 0.0000000
Neighbor list builds = 0
Dangerous builds = 0
Created 1 atoms
  create_atoms CPU = 0.000 seconds
22 atoms in group Ne
WARNING: No fixes defined, atoms won't move (src/lammps/src/verlet.cpp:55)
Neighbor list info ...
  update every 1 steps, delay 0 steps, check yes
  max neighbors/atom: 10000, page size: 100000
  master list distance cutoff = 22
  ghost atom cutoff = 22
  binsize = 11, bins = 5 5 1
  2 neighbor lists, perpetual/occasional/extra = 1 1 0
  (1) pair lj/cut, perpetual
      attributes: half, newton on
      pair build: half/bin/newton
      stencil: half/bin/3d
      bin: standard
  (2) compute group/group, occasional, copy from (1)
      attributes: half, newton on
      pair build: copy
      stencil: none
      bin: none
Setting up Verlet run ...
  Unit style    : real
  Current step  : 22
  Time step     : 1
Per MPI rank memory allocation (min/avg/max) = 7.320 | 7.320 | 7.320 Mbytes
Step Lz c_intEn 
      22        5.564    14303.229 
Loop time of 4.0066e-06 on 2 procs for 0 steps with 82 atoms

112.3% CPU use with 2 MPI tasks x 1 OpenMP threads

MPI task timing breakdown:
Section |  min time  |  avg time  |  max time  |%varavg| %total
---------------------------------------------------------------
Pair    | 0          | 0          | 0          |   0.0 |  0.00
Bond    | 0          | 0          | 0          |   0.0 |  0.00
Neigh   | 0          | 0          | 0          |   0.0 |  0.00
Comm    | 0          | 0          | 0          |   0.0 |  0.00
Output  | 0          | 0          | 0          |   0.0 |  0.00
Modify  | 0          | 0          | 0          |   0.0 |  0.00
Other   |            | 4.007e-06  |            |       |100.00

Nlocal:        41.0000 ave          44 max          38 min
Histogram: 1 0 0 0 0 0 0 0 0 1
Nghost:        1238.50 ave        1246 max        1231 min
Histogram: 1 0 0 0 0 0 0 0 0 1
Neighs:        12658.5 ave       14573 max       10744 min
Histogram: 1 0 0 0 0 0 0 0 0 1

Total # of neighbors = 25317
Ave neighs/atom = 308.74390
Ave special neighs/atom = 0.0000000
Neighbor list builds = 0
Dangerous builds = 0
Created 1 atoms
  create_atoms CPU = 0.000 seconds
23 atoms in group Ne
WARNING: No fixes defined, atoms won't move (src/lammps/src/verlet.cpp:55)
Neighbor list info ...
  update every 1 steps, delay 0 steps, check yes
  max neighbors/atom: 10000, page size: 100000
  master list distance cutoff = 22
  ghost atom cutoff = 22
  binsize = 11, bins = 5 5 1
  2 neighbor lists, perpetual/occasional/extra = 1 1 0
  (1) pair lj/cut, perpetual
      attributes: half, newton on
      pair build: half/bin/newton
      stencil: half/bin/3d
      bin: standard
  (2) compute group/group, occasional, copy from (1)
      attributes: half, newton on
      pair build: copy
      stencil: none
      bin: none
Setting up Verlet run ...
  Unit style    : real
  Current step  : 23
  Time step     : 1
Per MPI rank memory allocation (min/avg/max) = 7.320 | 7.320 | 7.320 Mbytes
Step Lz c_intEn 
      23        5.564    14523.317 
Loop time of 3.68273e-06 on 2 procs for 0 steps with 83 atoms

122.2% CPU use with 2 MPI tasks x 1 OpenMP threads

MPI task timing breakdown:
Section |  min time  |  avg time  |  max time  |%varavg| %total
---------------------------------------------------------------
Pair    | 0          | 0          | 0          |   0.0 |  0.00
Bond    | 0          | 0          | 0          |   0.0 |  0.00
Neigh   | 0          | 0          | 0          |   0.0 |  0.00
Comm    | 0          | 0          | 0          |   0.0 |  0.00
Output  | 0          | 0          | 0          |   0.0 |  0.00
Modify  | 0          | 0          | 0          |   0.0 |  0.00
Other   |            | 3.683e-06  |            |       |100.00

Nlocal:        41.5000 ave          44 max          39 min
Histogram: 1 0 0 0 0 0 0 0 0 1
Nghost:        1247.00 ave        1254 max        1240 min
Histogram: 1 0 0 0 0 0 0 0 0 1
Neighs:        12973.0 ave       14762 max       11184 min
Histogram: 1 0 0 0 0 0 0 0 0 1

Total # of neighbors = 25946
Ave neighs/atom = 312.60241
Ave special neighs/atom = 0.0000000
Neighbor list builds = 0
Dangerous builds = 0
Created 1 atoms
  create_atoms CPU = 0.000 seconds
24 atoms in group Ne
WARNING: No fixes defined, atoms won't move (src/lammps/src/verlet.cpp:55)
Neighbor list info ...
  update every 1 steps, delay 0 steps, check yes
  max neighbors/atom: 10000, page size: 100000
  master list distance cutoff = 22
  ghost atom cutoff = 22
  binsize = 11, bins = 5 5 1
  2 neighbor lists, perpetual/occasional/extra = 1 1 0
  (1) pair lj/cut, perpetual
      attributes: half, newton on
      pair build: half/bin/newton
      stencil: half/bin/3d
      bin: standard
  (2) compute group/group, occasional, copy from (1)
      attributes: half, newton on
      pair build: copy
      stencil: none
      bin: none
Setting up Verlet run ...
  Unit style    : real
  Current step  : 24
  Time step     : 1
Per MPI rank memory allocation (min/avg/max) = 7.320 | 7.320 | 7.320 Mbytes
Step Lz c_intEn 
      24        5.564      14522.7 
Loop time of 2.86677e-06 on 2 procs for 0 steps with 84 atoms

122.1% CPU use with 2 MPI tasks x 1 OpenMP threads

MPI task timing breakdown:
Section |  min time  |  avg time  |  max time  |%varavg| %total
---------------------------------------------------------------
Pair    | 0          | 0          | 0          |   0.0 |  0.00
Bond    | 0          | 0          | 0          |   0.0 |  0.00
Neigh   | 0          | 0          | 0          |   0.0 |  0.00
Comm    | 0          | 0          | 0          |   0.0 |  0.00
Output  | 0          | 0          | 0          |   0.0 |  0.00
Modify  | 0          | 0          | 0          |   0.0 |  0.00
Other   |            | 2.867e-06  |            |       |100.00

Nlocal:        42.0000 ave          45 max          39 min
Histogram: 1 0 0 0 0 0 0 0 0 1
Nghost:        1255.50 ave        1263 max        1248 min
Histogram: 1 0 0 0 0 0 0 0 0 1
Neighs:        13291.0 ave       15264 max       11318 min
Histogram: 1 0 0 0 0 0 0 0 0 1

Total # of neighbors = 26582
Ave neighs/atom = 316.45238
Ave special neighs/atom = 0.0000000
Neighbor list builds = 0
Dangerous builds = 0
Created 1 atoms
  create_atoms CPU = 0.000 seconds
25 atoms in group Ne
WARNING: No fixes defined, atoms won't move (src/lammps/src/verlet.cpp:55)
Neighbor list info ...
  update every 1 steps, delay 0 steps, check yes
  max neighbors/atom: 10000, page size: 100000
  master list distance cutoff = 22
  ghost atom cutoff = 22
  binsize = 11, bins = 5 5 1
  2 neighbor lists, perpetual/occasional/extra = 1 1 0
  (1) pair lj/cut, perpetual
      attributes: half, newton on
      pair build: half/bin/newton
      stencil: half/bin/3d
      bin: standard
  (2) compute group/group, occasional, copy from (1)
      attributes: half, newton on
      pair build: copy
      stencil: none
      bin: none
Setting up Verlet run ...
  Unit style    : real
  Current step  : 25
  Time step     : 1
Per MPI rank memory allocation (min/avg/max) = 7.320 | 7.320 | 7.320 Mbytes
Step Lz c_intEn 
      25        5.564    14521.747 
Loop time of 2.98316e-06 on 2 procs for 0 steps with 85 atoms

83.8% CPU use with 2 MPI tasks x 1 OpenMP threads

MPI task timing breakdown:
Section |  min time  |  avg time  |  max time  |%varavg| %total
---------------------------------------------------------------
Pair    | 0          | 0          | 0          |   0.0 |  0.00
Bond    | 0          | 0          | 0          |   0.0 |  0.00
Neigh   | 0          | 0          | 0          |   0.0 |  0.00
Comm    | 0          | 0          | 0          |   0.0 |  0.00
Output  | 0          | 0          | 0          |   0.0 |  0.00
Modify  | 0          | 0          | 0          |   0.0 |  0.00
Other   |            | 2.983e-06  |            |       |100.00

Nlocal:        42.5000 ave          45 max          40 min
Histogram: 1 0 0 0 0 0 0 0 0 1
Nghost:        1264.00 ave        1271 max        1257 min
Histogram: 1 0 0 0 0 0 0 0 0 1
Neighs:        13613.5 ave       15469 max       11758 min
Histogram: 1 0 0 0 0 0 0 0 0 1

Total # of neighbors = 27227
Ave neighs/atom = 320.31765
Ave special neighs/atom = 0.0000000
Neighbor list builds = 0
Dangerous builds = 0
Created 1 atoms
  create_atoms CPU = 0.000 seconds
26 atoms in group Ne
WARNING: No fixes defined, atoms won't move (src/lammps/src/verlet.cpp:55)
Neighbor list info ...
  update every 1 steps, delay 0 steps, check yes
  max neighbors/atom: 10000, page size: 100000
  master list distance cutoff = 22
  ghost atom cutoff = 22
  binsize = 11, bins = 5 5 1
  2 neighbor lists, perpetual/occasional/extra = 1 1 0
  (1) pair lj/cut, perpetual
      attributes: half, newton on
      pair build: half/bin/newton
      stencil: half/bin/3d
      bin: standard
  (2) compute group/group, occasional, copy from (1)
      attributes: half, newton on
      pair build: copy
      stencil: none
      bin: none
Setting up Verlet run ...
  Unit style    : real
  Current step  : 26
  Time step     : 1
Per MPI rank memory allocation (min/avg/max) = 7.320 | 7.320 | 7.320 Mbytes
Step Lz c_intEn 
      26        5.564    20710.433 
Loop time of 2.40379e-06 on 2 procs for 0 steps with 86 atoms

104.0% CPU use with 2 MPI tasks x 1 OpenMP threads

MPI task timing breakdown:
Section |  min time  |  avg time  |  max time  |%varavg| %total
---------------------------------------------------------------
Pair    | 0          | 0          | 0          |   0.0 |  0.00
Bond    | 0          | 0          | 0          |   0.0 |  0.00
Neigh   | 0          | 0          | 0          |   0.0 |  0.00
Comm    | 0          | 0          | 0          |   0.0 |  0.00
Output  | 0          | 0          | 0          |   0.0 |  0.00
Modify  | 0          | 0          | 0          |   0.0 |  0.00
Other   |            | 2.404e-06  |            |       |100.00

Nlocal:        43.0000 ave          46 max          40 min
Histogram: 1 0 0 0 0 0 0 0 0 1
Nghost:        1272.50 ave        1280 max        1265 min
Histogram: 1 0 0 0 0 0 0 0 0 1
Neighs:        13936.5 ave       15981 max       11892 min
Histogram: 1 0 0 0 0 0 0 0 0 1

Total # of neighbors = 27873
Ave neighs/atom = 324.10465
Ave special neighs/atom = 0.0000000
Neighbor list builds = 0
Dangerous builds = 0
Created 1 atoms
  create_atoms CPU = 0.000 seconds
27 atoms in group Ne
WARNING: No fixes defined, atoms won't move (src/lammps/src/verlet.cpp:55)
Neighbor list info ...
  update every 1 steps, delay 0 steps, check yes
  max neighbors/atom: 10000, page size: 100000
  master list distance cutoff = 22
  ghost atom cutoff = 22
  binsize = 11, bins = 5 5 1
  2 neighbor lists, perpetual/occasional/extra = 1 1 0
  (1) pair lj/cut, perpetual
      attributes: half, newton on
      pair build: half/bin/newton
      stencil: half/bin/3d
      bin: standard
  (2) compute group/group, occasional, copy from (1)
      attributes: half, newton on
      pair build: copy
      stencil: none
      bin: none
Setting up Verlet run ...
  Unit style    : real
  Current step  : 27
  Time step     : 1
Per MPI rank memory allocation (min/avg/max) = 7.321 | 7.321 | 7.321 Mbytes
Step Lz c_intEn 
      27        5.564    20780.572 
Loop time of 2.59267e-06 on 2 procs for 0 steps with 87 atoms

57.9% CPU use with 2 MPI tasks x 1 OpenMP threads

MPI task timing breakdown:
Section |  min time  |  avg time  |  max time  |%varavg| %total
---------------------------------------------------------------
Pair    | 0          | 0          | 0          |   0.0 |  0.00
Bond    | 0          | 0          | 0          |   0.0 |  0.00
Neigh   | 0          | 0          | 0          |   0.0 |  0.00
Comm    | 0          | 0          | 0          |   0.0 |  0.00
Output  | 0          | 0          | 0          |   0.0 |  0.00
Modify  | 0          | 0          | 0          |   0.0 |  0.00
Other   |            | 2.593e-06  |            |       |100.00

Nlocal:        43.5000 ave          47 max          40 min
Histogram: 1 0 0 0 0 0 0 0 0 1
Nghost:        1281.00 ave        1289 max        1273 min
Histogram: 1 0 0 0 0 0 0 0 0 1
Neighs:        14269.0 ave       16532 max       12006 min
Histogram: 1 0 0 0 0 0 0 0 0 1

Total # of neighbors = 28538
Ave neighs/atom = 328.02299
Ave special neighs/atom = 0.0000000
Neighbor list builds = 0
Dangerous builds = 0
Created 1 atoms
  create_atoms CPU = 0.000 seconds
28 atoms in group Ne
WARNING: No fixes defined, atoms won't move (src/lammps/src/verlet.cpp:55)
Neighbor list info ...
  update every 1 steps, delay 0 steps, check yes
  max neighbors/atom: 10000, page size: 100000
  master list distance cutoff = 22
  ghost atom cutoff = 22
  binsize = 11, bins = 5 5 1
  2 neighbor lists, perpetual/occasional/extra = 1 1 0
  (1) pair lj/cut, perpetual
      attributes: half, newton on
      pair build: half/bin/newton
      stencil: half/bin/3d
      bin: standard
  (2) compute group/group, occasional, copy from (1)
      attributes: half, newton on
      pair build: copy
      stencil: none
      bin: none
Setting up Verlet run ...
  Unit style    : real
  Current step  : 28
  Time step     : 1
Per MPI rank memory allocation (min/avg/max) = 7.321 | 7.321 | 7.321 Mbytes
Step Lz c_intEn 
      28        5.564    20791.495 
Loop time of 3.65226e-06 on 2 procs for 0 steps with 88 atoms

82.1% CPU use with 2 MPI tasks x 1 OpenMP threads

MPI task timing breakdown:
Section |  min time  |  avg time  |  max time  |%varavg| %total
---------------------------------------------------------------
Pair    | 0          | 0          | 0          |   0.0 |  0.00
Bond    | 0          | 0          | 0          |   0.0 |  0.00
Neigh   | 0          | 0          | 0          |   0.0 |  0.00
Comm    | 0          | 0          | 0          |   0.0 |  0.00
Output  | 0          | 0          | 0          |   0.0 |  0.00
Modify  | 0          | 0          | 0          |   0.0 |  0.00
Other   |            | 3.652e-06  |            |       |100.00

Nlocal:        44.0000 ave          47 max          41 min
Histogram: 1 0 0 0 0 0 0 0 0 1
Nghost:        1289.50 ave        1297 max        1282 min
Histogram: 1 0 0 0 0 0 0 0 0 1
Neighs:        14601.5 ave       16721 max       12482 min
Histogram: 1 0 0 0 0 0 0 0 0 1

Total # of neighbors = 29203
Ave neighs/atom = 331.85227
Ave special neighs/atom = 0.0000000
Neighbor list builds = 0
Dangerous builds = 0
Created 1 atoms
  create_atoms CPU = 0.000 seconds
29 atoms in group Ne
WARNING: No fixes defined, atoms won't move (src/lammps/src/verlet.cpp:55)
Neighbor list info ...
  update every 1 steps, delay 0 steps, check yes
  max neighbors/atom: 10000, page size: 100000
  master list distance cutoff = 22
  ghost atom cutoff = 22
  binsize = 11, bins = 5 5 1
  2 neighbor lists, perpetual/occasional/extra = 1 1 0
  (1) pair lj/cut, perpetual
      attributes: half, newton on
      pair build: half/bin/newton
      stencil: half/bin/3d
      bin: standard
  (2) compute group/group, occasional, copy from (1)
      attributes: half, newton on
      pair build: copy
      stencil: none
      bin: none
Setting up Verlet run ...
  Unit style    : real
  Current step  : 29
  Time step     : 1
Per MPI rank memory allocation (min/avg/max) = 7.321 | 7.321 | 7.321 Mbytes
Step Lz c_intEn 
      29        5.564    20790.123 
Loop time of 2.16532e-06 on 2 procs for 0 steps with 89 atoms

69.3% CPU use with 2 MPI tasks x 1 OpenMP threads

MPI task timing breakdown:
Section |  min time  |  avg time  |  max time  |%varavg| %total
---------------------------------------------------------------
Pair    | 0          | 0          | 0          |   0.0 |  0.00
Bond    | 0          | 0          | 0          |   0.0 |  0.00
Neigh   | 0          | 0          | 0          |   0.0 |  0.00
Comm    | 0          | 0          | 0          |   0.0 |  0.00
Output  | 0          | 0          | 0          |   0.0 |  0.00
Modify  | 0          | 0          | 0          |   0.0 |  0.00
Other   |            | 2.165e-06  |            |       |100.00

Nlocal:        44.5000 ave          48 max          41 min
Histogram: 1 0 0 0 0 0 0 0 0 1
Nghost:        1298.00 ave        1306 max        1290 min
Histogram: 1 0 0 0 0 0 0 0 0 1
Neighs:        14949.5 ave       17259 max       12640 min
Histogram: 1 0 0 0 0 0 0 0 0 1

Total # of neighbors = 29899
Ave neighs/atom = 335.94382
Ave special neighs/atom = 0.0000000
Neighbor list builds = 0
Dangerous builds = 0
Created 1 atoms
  create_atoms CPU = 0.000 seconds
30 atoms in group Ne
WARNING: No fixes defined, atoms won't move (src/lammps/src/verlet.cpp:55)
Neighbor list info ...
  update every 1 steps, delay 0 steps, check yes
  max neighbors/atom: 10000, page size: 100000
  master list distance cutoff = 22
  ghost atom cutoff = 22
  binsize = 11, bins = 5 5 1
  2 neighbor lists, perpetual/occasional/extra = 1 1 0
  (1) pair lj/cut, perpetual
      attributes: half, newton on
      pair build: half/bin/newton
      stencil: half/bin/3d
      bin: standard
  (2) compute group/group, occasional, copy from (1)
      attributes: half, newton on
      pair build: copy
      stencil: none
      bin: none
Setting up Verlet run ...
  Unit style    : real
  Current step  : 30
  Time step     : 1
Per MPI rank memory allocation (min/avg/max) = 7.321 | 7.321 | 7.321 Mbytes
Step Lz c_intEn 
      30        5.564    20789.006 
Loop time of 2.03722e-06 on 2 procs for 0 steps with 90 atoms

73.6% CPU use with 2 MPI tasks x 1 OpenMP threads

MPI task timing breakdown:
Section |  min time  |  avg time  |  max time  |%varavg| %total
---------------------------------------------------------------
Pair    | 0          | 0          | 0          |   0.0 |  0.00
Bond    | 0          | 0          | 0          |   0.0 |  0.00
Neigh   | 0          | 0          | 0          |   0.0 |  0.00
Comm    | 0          | 0          | 0          |   0.0 |  0.00
Output  | 0          | 0          | 0          |   0.0 |  0.00
Modify  | 0          | 0          | 0          |   0.0 |  0.00
Other   |            | 2.037e-06  |            |       |100.00

Nlocal:        45.0000 ave          49 max          41 min
Histogram: 1 0 0 0 0 0 0 0 0 1
Nghost:        1305.50 ave        1314 max        1297 min
Histogram: 1 0 0 0 0 0 0 0 0 1
Neighs:        15298.0 ave       17798 max       12798 min
Histogram: 1 0 0 0 0 0 0 0 0 1

Total # of neighbors = 30596
Ave neighs/atom = 339.95556
Ave special neighs/atom = 0.0000000
Neighbor list builds = 0
Dangerous builds = 0
Created 1 atoms
  create_atoms CPU = 0.000 seconds
31 atoms in group Ne
WARNING: No fixes defined, atoms won't move (src/lammps/src/verlet.cpp:55)
Neighbor list info ...
  update every 1 steps, delay 0 steps, check yes
  max neighbors/atom: 10000, page size: 100000
  master list distance cutoff = 22
  ghost atom cutoff = 22
  binsize = 11, bins = 5 5 1
  2 neighbor lists, perpetual/occasional/extra = 1 1 0
  (1) pair lj/cut, perpetual
      attributes: half, newton on
      pair build: half/bin/newton
      stencil: half/bin/3d
      bin: standard
  (2) compute group/group, occasional, copy from (1)
      attributes: half, newton on
      pair build: copy
      stencil: none
      bin: none
Setting up Verlet run ...
  Unit style    : real
  Current step  : 31
  Time step     : 1
Per MPI rank memory allocation (min/avg/max) = 7.321 | 7.321 | 7.321 Mbytes
Step Lz c_intEn 
      31        5.564    21725.308 
Loop time of 2.10385e-06 on 2 procs for 0 steps with 91 atoms

95.1% CPU use with 2 MPI tasks x 1 OpenMP threads

MPI task timing breakdown:
Section |  min time  |  avg time  |  max time  |%varavg| %total
---------------------------------------------------------------
Pair    | 0          | 0          | 0          |   0.0 |  0.00
Bond    | 0          | 0          | 0          |   0.0 |  0.00
Neigh   | 0          | 0          | 0          |   0.0 |  0.00
Comm    | 0          | 0          | 0          |   0.0 |  0.00
Output  | 0          | 0          | 0          |   0.0 |  0.00
Modify  | 0          | 0          | 0          |   0.0 |  0.00
Other   |            | 2.104e-06  |            |       |100.00

Nlocal:        45.5000 ave          50 max          41 min
Histogram: 1 0 0 0 0 0 0 0 0 1
Nghost:        1314.00 ave        1323 max        1305 min
Histogram: 1 0 0 0 0 0 0 0 0 1
Neighs:        15644.0 ave       18367 max       12921 min
Histogram: 1 0 0 0 0 0 0 0 0 1

Total # of neighbors = 31288
Ave neighs/atom = 343.82418
Ave special neighs/atom = 0.0000000
Neighbor list builds = 0
Dangerous builds = 0
Created 1 atoms
  create_atoms CPU = 0.000 seconds
32 atoms in group Ne
WARNING: No fixes defined, atoms won't move (src/lammps/src/verlet.cpp:55)
Neighbor list info ...
  update every 1 steps, delay 0 steps, check yes
  max neighbors/atom: 10000, page size: 100000
  master list distance cutoff = 22
  ghost atom cutoff = 22
  binsize = 11, bins = 5 5 1
  2 neighbor lists, perpetual/occasional/extra = 1 1 0
  (1) pair lj/cut, perpetual
      attributes: half, newton on
      pair build: half/bin/newton
      stencil: half/bin/3d
      bin: standard
  (2) compute group/group, occasional, copy from (1)
      attributes: half, newton on
      pair build: copy
      stencil: none
      bin: none
Setting up Verlet run ...
  Unit style    : real
  Current step  : 32
  Time step     : 1
Per MPI rank memory allocation (min/avg/max) = 7.321 | 7.321 | 7.322 Mbytes
Step Lz c_intEn 
      32        5.564    23039.803 
Loop time of 1.98092e-06 on 2 procs for 0 steps with 92 atoms

101.0% CPU use with 2 MPI tasks x 1 OpenMP threads

MPI task timing breakdown:
Section |  min time  |  avg time  |  max time  |%varavg| %total
---------------------------------------------------------------
Pair    | 0          | 0          | 0          |   0.0 |  0.00
Bond    | 0          | 0          | 0          |   0.0 |  0.00
Neigh   | 0          | 0          | 0          |   0.0 |  0.00
Comm    | 0          | 0          | 0          |   0.0 |  0.00
Output  | 0          | 0          | 0          |   0.0 |  0.00
Modify  | 0          | 0          | 0          |   0.0 |  0.00
Other   |            | 1.981e-06  |            |       |100.00

Nlocal:        46.0000 ave          51 max          41 min
Histogram: 1 0 0 0 0 0 0 0 0 1
Nghost:        1322.50 ave        1332 max        1313 min
Histogram: 1 0 0 0 0 0 0 0 0 1
Neighs:        15991.5 ave       18942 max       13041 min
Histogram: 1 0 0 0 0 0 0 0 0 1

Total # of neighbors = 31983
Ave neighs/atom = 347.64130
Ave special neighs/atom = 0.0000000
Neighbor list builds = 0
Dangerous builds = 0
Created 1 atoms
  create_atoms CPU = 0.000 seconds
33 atoms in group Ne
WARNING: No fixes defined, atoms won't move (src/lammps/src/verlet.cpp:55)
Neighbor list info ...
  update every 1 steps, delay 0 steps, check yes
  max neighbors/atom: 10000, page size: 100000
  master list distance cutoff = 22
  ghost atom cutoff = 22
  binsize = 11, bins = 5 5 1
  2 neighbor lists, perpetual/occasional/extra = 1 1 0
  (1) pair lj/cut, perpetual
      attributes: half, newton on
      pair build: half/bin/newton
      stencil: half/bin/3d
      bin: standard
  (2) compute group/group, occasional, copy from (1)
      attributes: half, newton on
      pair build: copy
      stencil: none
      bin: none
Setting up Verlet run ...
  Unit style    : real
  Current step  : 33
  Time step     : 1
Per MPI rank memory allocation (min/avg/max) = 7.322 | 7.322 | 7.322 Mbytes
Step Lz c_intEn 
      33        5.564    23038.737 
Loop time of 1.8535e-06 on 2 procs for 0 steps with 93 atoms

54.0% CPU use with 2 MPI tasks x 1 OpenMP threads

MPI task timing breakdown:
Section |  min time  |  avg time  |  max time  |%varavg| %total
---------------------------------------------------------------
Pair    | 0          | 0          | 0          |   0.0 |  0.00
Bond    | 0          | 0          | 0          |   0.0 |  0.00
Neigh   | 0          | 0          | 0          |   0.0 |  0.00
Comm    | 0          | 0          | 0          |   0.0 |  0.00
Output  | 0          | 0          | 0          |   0.0 |  0.00
Modify  | 0          | 0          | 0          |   0.0 |  0.00
Other   |            | 1.854e-06  |            |       |100.00

Nlocal:        46.5000 ave          52 max          41 min
Histogram: 1 0 0 0 0 0 0 0 0 1
Nghost:        1331.00 ave        1341 max        1321 min
Histogram: 1 0 0 0 0 0 0 0 0 1
Neighs:        16352.0 ave       19506 max       13198 min
Histogram: 1 0 0 0 0 0 0 0 0 1

Total # of neighbors = 32704
Ave neighs/atom = 351.65591
Ave special neighs/atom = 0.0000000
Neighbor list builds = 0
Dangerous builds = 0
Created 1 atoms
  create_atoms CPU = 0.000 seconds
34 atoms in group Ne
WARNING: No fixes defined, atoms won't move (src/lammps/src/verlet.cpp:55)
Neighbor list info ...
  update every 1 steps, delay 0 steps, check yes
  max neighbors/atom: 10000, page size: 100000
  master list distance cutoff = 22
  ghost atom cutoff = 22
  binsize = 11, bins = 5 5 1
  2 neighbor lists, perpetual/occasional/extra = 1 1 0
  (1) pair lj/cut, perpetual
      attributes: half, newton on
      pair build: half/bin/newton
      stencil: half/bin/3d
      bin: standard
  (2) compute group/group, occasional, copy from (1)
      attributes: half, newton on
      pair build: copy
      stencil: none
      bin: none
Setting up Verlet run ...
  Unit style    : real
  Current step  : 34
  Time step     : 1
Per MPI rank memory allocation (min/avg/max) = 7.322 | 7.322 | 7.322 Mbytes
Step Lz c_intEn 
      34        5.564    25815.595 
Loop time of 1.88071e-06 on 2 procs for 0 steps with 94 atoms

106.3% CPU use with 2 MPI tasks x 1 OpenMP threads

MPI task timing breakdown:
Section |  min time  |  avg time  |  max time  |%varavg| %total
---------------------------------------------------------------
Pair    | 0          | 0          | 0          |   0.0 |  0.00
Bond    | 0          | 0          | 0          |   0.0 |  0.00
Neigh   | 0          | 0          | 0          |   0.0 |  0.00
Comm    | 0          | 0          | 0          |   0.0 |  0.00
Output  | 0          | 0          | 0          |   0.0 |  0.00
Modify  | 0          | 0          | 0          |   0.0 |  0.00
Other   |            | 1.881e-06  |            |       |100.00

Nlocal:        47.0000 ave          53 max          41 min
Histogram: 1 0 0 0 0 0 0 0 0 1
Nghost:        1344.00 ave        1359 max        1329 min
Histogram: 1 0 0 0 0 0 0 0 0 1
Neighs:        16710.5 ave       20096 max       13325 min
Histogram: 1 0 0 0 0 0 0 0 0 1

Total # of neighbors = 33421
Ave neighs/atom = 355.54255
Ave special neighs/atom = 0.0000000
Neighbor list builds = 0
Dangerous builds = 0
Created 1 atoms
  create_atoms CPU = 0.000 seconds
35 atoms in group Ne
WARNING: No fixes defined, atoms won't move (src/lammps/src/verlet.cpp:55)
Neighbor list info ...
  update every 1 steps, delay 0 steps, check yes
  max neighbors/atom: 10000, page size: 100000
  master list distance cutoff = 22
  ghost atom cutoff = 22
  binsize = 11, bins = 5 5 1
  2 neighbor lists, perpetual/occasional/extra = 1 1 0
  (1) pair lj/cut, perpetual
      attributes: half, newton on
      pair build: half/bin/newton
      stencil: half/bin/3d
      bin: standard
  (2) compute group/group, occasional, copy from (1)
      attributes: half, newton on
      pair build: copy
      stencil: none
      bin: none
Setting up Verlet run ...
  Unit style    : real
  Current step  : 35
  Time step     : 1
Per MPI rank memory allocation (min/avg/max) = 7.322 | 7.322 | 7.322 Mbytes
Step Lz c_intEn 
      35        5.564    25815.027 
Loop time of 1.87382e-06 on 2 procs for 0 steps with 95 atoms

106.7% CPU use with 2 MPI tasks x 1 OpenMP threads

MPI task timing breakdown:
Section |  min time  |  avg time  |  max time  |%varavg| %total
---------------------------------------------------------------
Pair    | 0          | 0          | 0          |   0.0 |  0.00
Bond    | 0          | 0          | 0          |   0.0 |  0.00
Neigh   | 0          | 0          | 0          |   0.0 |  0.00
Comm    | 0          | 0          | 0          |   0.0 |  0.00
Output  | 0          | 0          | 0          |   0.0 |  0.00
Modify  | 0          | 0          | 0          |   0.0 |  0.00
Other   |            | 1.874e-06  |            |       |100.00

Nlocal:        47.5000 ave          53 max          42 min
Histogram: 1 0 0 0 0 0 0 0 0 1
Nghost:        1352.50 ave        1367 max        1338 min
Histogram: 1 0 0 0 0 0 0 0 0 1
Neighs:        17077.5 ave       20331 max       13824 min
Histogram: 1 0 0 0 0 0 0 0 0 1

Total # of neighbors = 34155
Ave neighs/atom = 359.52632
Ave special neighs/atom = 0.0000000
Neighbor list builds = 0
Dangerous builds = 0
Created 1 atoms
  create_atoms CPU = 0.000 seconds
36 atoms in group Ne
WARNING: No fixes defined, atoms won't move (src/lammps/src/verlet.cpp:55)
Neighbor list info ...
  update every 1 steps, delay 0 steps, check yes
  max neighbors/atom: 10000, page size: 100000
  master list distance cutoff = 22
  ghost atom cutoff = 22
  binsize = 11, bins = 5 5 1
  2 neighbor lists, perpetual/occasional/extra = 1 1 0
  (1) pair lj/cut, perpetual
      attributes: half, newton on
      pair build: half/bin/newton
      stencil: half/bin/3d
      bin: standard
  (2) compute group/group, occasional, copy from (1)
      attributes: half, newton on
      pair build: copy
      stencil: none
      bin: none
Setting up Verlet run ...
  Unit style    : real
  Current step  : 36
  Time step     : 1
Per MPI rank memory allocation (min/avg/max) = 7.322 | 7.322 | 7.322 Mbytes
Step Lz c_intEn 
      36        5.564    26615.381 
Loop time of 1.98281e-06 on 2 procs for 0 steps with 96 atoms

100.9% CPU use with 2 MPI tasks x 1 OpenMP threads

MPI task timing breakdown:
Section |  min time  |  avg time  |  max time  |%varavg| %total
---------------------------------------------------------------
Pair    | 0          | 0          | 0          |   0.0 |  0.00
Bond    | 0          | 0          | 0          |   0.0 |  0.00
Neigh   | 0          | 0          | 0          |   0.0 |  0.00
Comm    | 0          | 0          | 0          |   0.0 |  0.00
Output  | 0          | 0          | 0          |   0.0 |  0.00
Modify  | 0          | 0          | 0          |   0.0 |  0.00
Other   |            | 1.983e-06  |            |       |100.00

Nlocal:        48.0000 ave          54 max          42 min
Histogram: 1 0 0 0 0 0 0 0 0 1
Nghost:        1361.00 ave        1376 max        1346 min
Histogram: 1 0 0 0 0 0 0 0 0 1
Neighs:        17440.5 ave       20934 max       13947 min
Histogram: 1 0 0 0 0 0 0 0 0 1

Total # of neighbors = 34881
Ave neighs/atom = 363.34375
Ave special neighs/atom = 0.0000000
Neighbor list builds = 0
Dangerous builds = 0
Created 1 atoms
  create_atoms CPU = 0.000 seconds
37 atoms in group Ne
WARNING: No fixes defined, atoms won't move (src/lammps/src/verlet.cpp:55)
Neighbor list info ...
  update every 1 steps, delay 0 steps, check yes
  max neighbors/atom: 10000, page size: 100000
  master list distance cutoff = 22
  ghost atom cutoff = 22
  binsize = 11, bins = 5 5 1
  2 neighbor lists, perpetual/occasional/extra = 1 1 0
  (1) pair lj/cut, perpetual
      attributes: half, newton on
      pair build: half/bin/newton
      stencil: half/bin/3d
      bin: standard
  (2) compute group/group, occasional, copy from (1)
      attributes: half, newton on
      pair build: copy
      stencil: none
      bin: none
Setting up Verlet run ...
  Unit style    : real
  Current step  : 37
  Time step     : 1
Per MPI rank memory allocation (min/avg/max) = 7.322 | 7.322 | 7.322 Mbytes
Step Lz c_intEn 
      37        5.564    26781.148 
Loop time of 1.77034e-06 on 2 procs for 0 steps with 97 atoms

113.0% CPU use with 2 MPI tasks x 1 OpenMP threads

MPI task timing breakdown:
Section |  min time  |  avg time  |  max time  |%varavg| %total
---------------------------------------------------------------
Pair    | 0          | 0          | 0          |   0.0 |  0.00
Bond    | 0          | 0          | 0          |   0.0 |  0.00
Neigh   | 0          | 0          | 0          |   0.0 |  0.00
Comm    | 0          | 0          | 0          |   0.0 |  0.00
Output  | 0          | 0          | 0          |   0.0 |  0.00
Modify  | 0          | 0          | 0          |   0.0 |  0.00
Other   |            | 1.77e-06   |            |       |100.00

Nlocal:        48.5000 ave          54 max          43 min
Histogram: 1 0 0 0 0 0 0 0 0 1
Nghost:        1369.50 ave        1384 max        1355 min
Histogram: 1 0 0 0 0 0 0 0 0 1
Neighs:        17810.0 ave       21144 max       14476 min
Histogram: 1 0 0 0 0 0 0 0 0 1

Total # of neighbors = 35620
Ave neighs/atom = 367.21649
Ave special neighs/atom = 0.0000000
Neighbor list builds = 0
Dangerous builds = 0
Created 1 atoms
  create_atoms CPU = 0.000 seconds
38 atoms in group Ne
WARNING: No fixes defined, atoms won't move (src/lammps/src/verlet.cpp:55)
Neighbor list info ...
  update every 1 steps, delay 0 steps, check yes
  max neighbors/atom: 10000, page size: 100000
  master list distance cutoff = 22
  ghost atom cutoff = 22
  binsize = 11, bins = 5 5 1
  2 neighbor lists, perpetual/occasional/extra = 1 1 0
  (1) pair lj/cut, perpetual
      attributes: half, newton on
      pair build: half/bin/newton
      stencil: half/bin/3d
      bin: standard
  (2) compute group/group, occasional, copy from (1)
      attributes: half, newton on
      pair build: copy
      stencil: none
      bin: none
Setting up Verlet run ...
  Unit style    : real
  Current step  : 38
  Time step     : 1
Per MPI rank memory allocation (min/avg/max) = 7.322 | 7.322 | 7.322 Mbytes
Step Lz c_intEn 
      38        5.564    26780.068 
Loop time of 1.84196e-06 on 2 procs for 0 steps with 98 atoms

81.4% CPU use with 2 MPI tasks x 1 OpenMP threads

MPI task timing breakdown:
Section |  min time  |  avg time  |  max time  |%varavg| %total
---------------------------------------------------------------
Pair    | 0          | 0          | 0          |   0.0 |  0.00
Bond    | 0          | 0          | 0          |   0.0 |  0.00
Neigh   | 0          | 0          | 0          |   0.0 |  0.00
Comm    | 0          | 0          | 0          |   0.0 |  0.00
Output  | 0          | 0          | 0          |   0.0 |  0.00
Modify  | 0          | 0          | 0          |   0.0 |  0.00
Other   |            | 1.842e-06  |            |       |100.00

Nlocal:        49.0000 ave          54 max          44 min
Histogram: 1 0 0 0 0 0 0 0 0 1
Nghost:        1378.00 ave        1392 max        1364 min
Histogram: 1 0 0 0 0 0 0 0 0 1
Neighs:        18191.5 ave       21402 max       14981 min
Histogram: 1 0 0 0 0 0 0 0 0 1

Total # of neighbors = 36383
Ave neighs/atom = 371.25510
Ave special neighs/atom = 0.0000000
Neighbor list builds = 0
Dangerous builds = 0
Created 1 atoms
  create_atoms CPU = 0.000 seconds
39 atoms in group Ne
WARNING: No fixes defined, atoms won't move (src/lammps/src/verlet.cpp:55)
Neighbor list info ...
  update every 1 steps, delay 0 steps, check yes
  max neighbors/atom: 10000, page size: 100000
  master list distance cutoff = 22
  ghost atom cutoff = 22
  binsize = 11, bins = 5 5 1
  2 neighbor lists, perpetual/occasional/extra = 1 1 0
  (1) pair lj/cut, perpetual
      attributes: half, newton on
      pair build: half/bin/newton
      stencil: half/bin/3d
      bin: standard
  (2) compute group/group, occasional, copy from (1)
      attributes: half, newton on
      pair build: copy
      stencil: none
      bin: none
Setting up Verlet run ...
  Unit style    : real
  Current step  : 39
  Time step     : 1
Per MPI rank memory allocation (min/avg/max) = 7.323 | 7.323 | 7.323 Mbytes
Step Lz c_intEn 
      39        5.564    26962.033 
Loop time of 1.74727e-06 on 2 procs for 0 steps with 99 atoms

114.5% CPU use with 2 MPI tasks x 1 OpenMP threads

MPI task timing breakdown:
Section |  min time  |  avg time  |  max time  |%varavg| %total
---------------------------------------------------------------
Pair    | 0          | 0          | 0          |   0.0 |  0.00
Bond    | 0          | 0          | 0          |   0.0 |  0.00
Neigh   | 0          | 0          | 0          |   0.0 |  0.00
Comm    | 0          | 0          | 0          |   0.0 |  0.00
Output  | 0          | 0          | 0          |   0.0 |  0.00
Modify  | 0          | 0          | 0          |   0.0 |  0.00
Other   |            | 1.747e-06  |            |       |100.00

Nlocal:        49.5000 ave          55 max          44 min
Histogram: 1 0 0 0 0 0 0 0 0 1
Nghost:        1386.50 ave        1401 max        1372 min
[...]
---------------------------------------------------------------
Pair    | 0          | 0          | 0          |   0.0 |  0.00
Bond    | 0          | 0          | 0          |   0.0 |  0.00
Neigh   | 0          | 0          | 0          |   0.0 |  0.00
Comm    | 0          | 0          | 0          |   0.0 |  0.00
Output  | 0          | 0          | 0          |   0.0 |  0.00
Modify  | 0          | 0          | 0          |   0.0 |  0.00
Other   |            | 2.725e-06  |            |       |100.00

Nlocal:        525.500 ave         552 max         499 min
Histogram: 1 0 0 0 0 0 0 0 0 1
Nghost:        10370.0 ave       10437 max       10303 min
Histogram: 1 0 0 0 0 0 0 0 0 1
Neighs:    2.14809e+06 ave 2.17531e+06 max 2.12087e+06 min
Histogram: 1 0 0 0 0 0 0 0 0 1

Total # of neighbors = 4296181
Ave neighs/atom = 4087.7079
Ave special neighs/atom = 0.0000000
Neighbor list builds = 0
Dangerous builds = 0
Created 1 atoms
  create_atoms CPU = 0.000 seconds
992 atoms in group Ne
Neighbor list info ...
  update every 1 steps, delay 0 steps, check yes
  max neighbors/atom: 10000, page size: 100000
  master list distance cutoff = 22
  ghost atom cutoff = 22
  binsize = 11, bins = 5 5 1
  2 neighbor lists, perpetual/occasional/extra = 1 1 0
  (1) pair lj/cut, perpetual
      attributes: half, newton on
      pair build: half/bin/newton
      stencil: half/bin/3d
      bin: standard
  (2) compute group/group, occasional, copy from (1)
      attributes: half, newton on
      pair build: copy
      stencil: none
      bin: none
Setting up Verlet run ...
  Unit style    : real
  Current step  : 992
  Time step     : 1
Per MPI rank memory allocation (min/avg/max) = 16.44 | 16.44 | 16.44 Mbytes
Step Lz c_intEn 
WARNING: Too many warnings: 992 vs 100. All future warnings will be suppressed (src/lammps/src/thermo.cpp:423)
     992        5.564     15433469 
Loop time of 1.83818e-06 on 2 procs for 0 steps with 1052 atoms

163.2% CPU use with 2 MPI tasks x 1 OpenMP threads

MPI task timing breakdown:
Section |  min time  |  avg time  |  max time  |%varavg| %total
---------------------------------------------------------------
Pair    | 0          | 0          | 0          |   0.0 |  0.00
Bond    | 0          | 0          | 0          |   0.0 |  0.00
Neigh   | 0          | 0          | 0          |   0.0 |  0.00
Comm    | 0          | 0          | 0          |   0.0 |  0.00
Output  | 0          | 0          | 0          |   0.0 |  0.00
Modify  | 0          | 0          | 0          |   0.0 |  0.00
Other   |            | 1.838e-06  |            |       |100.00

Nlocal:        526.000 ave         552 max         500 min
Histogram: 1 0 0 0 0 0 0 0 0 1
Nghost:        10387.5 ave       10454 max       10321 min
Histogram: 1 0 0 0 0 0 0 0 0 1
Neighs:    2.15218e+06 ave 2.18167e+06 max 2.12269e+06 min
Histogram: 1 0 0 0 0 0 0 0 0 1

Total # of neighbors = 4304353
Ave neighs/atom = 4091.5903
Ave special neighs/atom = 0.0000000
Neighbor list builds = 0
Dangerous builds = 0
Created 1 atoms
  create_atoms CPU = 0.000 seconds
993 atoms in group Ne
Neighbor list info ...
  update every 1 steps, delay 0 steps, check yes
  max neighbors/atom: 10000, page size: 100000
  master list distance cutoff = 22
  ghost atom cutoff = 22
  binsize = 11, bins = 5 5 1
  2 neighbor lists, perpetual/occasional/extra = 1 1 0
  (1) pair lj/cut, perpetual
      attributes: half, newton on
      pair build: half/bin/newton
      stencil: half/bin/3d
      bin: standard
  (2) compute group/group, occasional, copy from (1)
      attributes: half, newton on
      pair build: copy
      stencil: none
      bin: none
Setting up Verlet run ...
  Unit style    : real
  Current step  : 993
  Time step     : 1
Per MPI rank memory allocation (min/avg/max) = 16.44 | 16.44 | 16.44 Mbytes
Step Lz c_intEn 
WARNING: Too many warnings: 993 vs 100. All future warnings will be suppressed (src/lammps/src/thermo.cpp:423)
     993        5.564     15433471 
Loop time of 2.46818e-06 on 2 procs for 0 steps with 1053 atoms

121.5% CPU use with 2 MPI tasks x 1 OpenMP threads

MPI task timing breakdown:
Section |  min time  |  avg time  |  max time  |%varavg| %total
---------------------------------------------------------------
Pair    | 0          | 0          | 0          |   0.0 |  0.00
Bond    | 0          | 0          | 0          |   0.0 |  0.00
Neigh   | 0          | 0          | 0          |   0.0 |  0.00
Comm    | 0          | 0          | 0          |   0.0 |  0.00
Output  | 0          | 0          | 0          |   0.0 |  0.00
Modify  | 0          | 0          | 0          |   0.0 |  0.00
Other   |            | 2.468e-06  |            |       |100.00

Nlocal:        526.500 ave         552 max         501 min
Histogram: 1 0 0 0 0 0 0 0 0 1
Nghost:        10395.0 ave       10461 max       10329 min
Histogram: 1 0 0 0 0 0 0 0 0 1
Neighs:    2.15627e+06 ave 2.18773e+06 max 2.12482e+06 min
Histogram: 1 0 0 0 0 0 0 0 0 1

Total # of neighbors = 4312548
Ave neighs/atom = 4095.4872
Ave special neighs/atom = 0.0000000
Neighbor list builds = 0
Dangerous builds = 0
Created 1 atoms
  create_atoms CPU = 0.000 seconds
994 atoms in group Ne
Neighbor list info ...
  update every 1 steps, delay 0 steps, check yes
  max neighbors/atom: 10000, page size: 100000
  master list distance cutoff = 22
  ghost atom cutoff = 22
  binsize = 11, bins = 5 5 1
  2 neighbor lists, perpetual/occasional/extra = 1 1 0
  (1) pair lj/cut, perpetual
      attributes: half, newton on
      pair build: half/bin/newton
      stencil: half/bin/3d
      bin: standard
  (2) compute group/group, occasional, copy from (1)
      attributes: half, newton on
      pair build: copy
      stencil: none
      bin: none
Setting up Verlet run ...
  Unit style    : real
  Current step  : 994
  Time step     : 1
Per MPI rank memory allocation (min/avg/max) = 16.44 | 16.44 | 16.44 Mbytes
Step Lz c_intEn 
WARNING: Too many warnings: 994 vs 100. All future warnings will be suppressed (src/lammps/src/thermo.cpp:423)
     994        5.564     15433488 
Loop time of 2.02465e-06 on 2 procs for 0 steps with 1054 atoms

148.2% CPU use with 2 MPI tasks x 1 OpenMP threads

MPI task timing breakdown:
Section |  min time  |  avg time  |  max time  |%varavg| %total
---------------------------------------------------------------
Pair    | 0          | 0          | 0          |   0.0 |  0.00
Bond    | 0          | 0          | 0          |   0.0 |  0.00
Neigh   | 0          | 0          | 0          |   0.0 |  0.00
Comm    | 0          | 0          | 0          |   0.0 |  0.00
Output  | 0          | 0          | 0          |   0.0 |  0.00
Modify  | 0          | 0          | 0          |   0.0 |  0.00
Other   |            | 2.025e-06  |            |       |100.00

Nlocal:        527.000 ave         552 max         502 min
Histogram: 1 0 0 0 0 0 0 0 0 1
Nghost:        10402.5 ave       10468 max       10337 min
Histogram: 1 0 0 0 0 0 0 0 0 1
Neighs:    2.16037e+06 ave 2.19379e+06 max 2.12694e+06 min
Histogram: 1 0 0 0 0 0 0 0 0 1

Total # of neighbors = 4320736
Ave neighs/atom = 4099.3700
Ave special neighs/atom = 0.0000000
Neighbor list builds = 0
Dangerous builds = 0
Created 1 atoms
  create_atoms CPU = 0.000 seconds
995 atoms in group Ne
Neighbor list info ...
  update every 1 steps, delay 0 steps, check yes
  max neighbors/atom: 10000, page size: 100000
  master list distance cutoff = 22
  ghost atom cutoff = 22
  binsize = 11, bins = 5 5 1
  2 neighbor lists, perpetual/occasional/extra = 1 1 0
  (1) pair lj/cut, perpetual
      attributes: half, newton on
      pair build: half/bin/newton
      stencil: half/bin/3d
      bin: standard
  (2) compute group/group, occasional, copy from (1)
      attributes: half, newton on
      pair build: copy
      stencil: none
      bin: none
Setting up Verlet run ...
  Unit style    : real
  Current step  : 995
  Time step     : 1
Per MPI rank memory allocation (min/avg/max) = 16.44 | 16.44 | 16.44 Mbytes
Step Lz c_intEn 
WARNING: Too many warnings: 995 vs 100. All future warnings will be suppressed (src/lammps/src/thermo.cpp:423)
     995        5.564     15537324 
Loop time of 2.09628e-06 on 2 procs for 0 steps with 1055 atoms

167.0% CPU use with 2 MPI tasks x 1 OpenMP threads

MPI task timing breakdown:
Section |  min time  |  avg time  |  max time  |%varavg| %total
---------------------------------------------------------------
Pair    | 0          | 0          | 0          |   0.0 |  0.00
Bond    | 0          | 0          | 0          |   0.0 |  0.00
Neigh   | 0          | 0          | 0          |   0.0 |  0.00
Comm    | 0          | 0          | 0          |   0.0 |  0.00
Output  | 0          | 0          | 0          |   0.0 |  0.00
Modify  | 0          | 0          | 0          |   0.0 |  0.00
Other   |            | 2.096e-06  |            |       |100.00

Nlocal:        527.500 ave         552 max         503 min
Histogram: 1 0 0 0 0 0 0 0 0 1
Nghost:        10420.0 ave       10485 max       10355 min
Histogram: 1 0 0 0 0 0 0 0 0 1
Neighs:    2.16444e+06 ave  2.2003e+06 max 2.12859e+06 min
Histogram: 1 0 0 0 0 0 0 0 0 1

Total # of neighbors = 4328890
Ave neighs/atom = 4103.2133
Ave special neighs/atom = 0.0000000
Neighbor list builds = 0
Dangerous builds = 0
Created 1 atoms
  create_atoms CPU = 0.000 seconds
996 atoms in group Ne
Neighbor list info ...
  update every 1 steps, delay 0 steps, check yes
  max neighbors/atom: 10000, page size: 100000
  master list distance cutoff = 22
  ghost atom cutoff = 22
  binsize = 11, bins = 5 5 1
  2 neighbor lists, perpetual/occasional/extra = 1 1 0
  (1) pair lj/cut, perpetual
      attributes: half, newton on
      pair build: half/bin/newton
      stencil: half/bin/3d
      bin: standard
  (2) compute group/group, occasional, copy from (1)
      attributes: half, newton on
      pair build: copy
      stencil: none
      bin: none
Setting up Verlet run ...
  Unit style    : real
  Current step  : 996
  Time step     : 1
Per MPI rank memory allocation (min/avg/max) = 16.44 | 16.63 | 16.82 Mbytes
Step Lz c_intEn 
WARNING: Too many warnings: 996 vs 100. All future warnings will be suppressed (src/lammps/src/thermo.cpp:423)
     996        5.564     15537328 
Loop time of 1.82596e-06 on 2 procs for 0 steps with 1056 atoms

136.9% CPU use with 2 MPI tasks x 1 OpenMP threads

MPI task timing breakdown:
Section |  min time  |  avg time  |  max time  |%varavg| %total
---------------------------------------------------------------
Pair    | 0          | 0          | 0          |   0.0 |  0.00
Bond    | 0          | 0          | 0          |   0.0 |  0.00
Neigh   | 0          | 0          | 0          |   0.0 |  0.00
Comm    | 0          | 0          | 0          |   0.0 |  0.00
Output  | 0          | 0          | 0          |   0.0 |  0.00
Modify  | 0          | 0          | 0          |   0.0 |  0.00
Other   |            | 1.826e-06  |            |       |100.00

Nlocal:        528.000 ave         552 max         504 min
Histogram: 1 0 0 0 0 0 0 0 0 1
Nghost:        10428.5 ave       10493 max       10364 min
Histogram: 1 0 0 0 0 0 0 0 0 1
Neighs:    2.16856e+06 ave  2.2067e+06 max 2.13042e+06 min
Histogram: 1 0 0 0 0 0 0 0 0 1

Total # of neighbors = 4337120
Ave neighs/atom = 4107.1212
Ave special neighs/atom = 0.0000000
Neighbor list builds = 0
Dangerous builds = 0
Created 1 atoms
  create_atoms CPU = 0.000 seconds
997 atoms in group Ne
Neighbor list info ...
  update every 1 steps, delay 0 steps, check yes
  max neighbors/atom: 10000, page size: 100000
  master list distance cutoff = 22
  ghost atom cutoff = 22
  binsize = 11, bins = 5 5 1
  2 neighbor lists, perpetual/occasional/extra = 1 1 0
  (1) pair lj/cut, perpetual
      attributes: half, newton on
      pair build: half/bin/newton
      stencil: half/bin/3d
      bin: standard
  (2) compute group/group, occasional, copy from (1)
      attributes: half, newton on
      pair build: copy
      stencil: none
      bin: none
Setting up Verlet run ...
  Unit style    : real
  Current step  : 997
  Time step     : 1
Per MPI rank memory allocation (min/avg/max) = 16.44 | 16.63 | 16.82 Mbytes
Step Lz c_intEn 
WARNING: Too many warnings: 997 vs 100. All future warnings will be suppressed (src/lammps/src/thermo.cpp:423)
     997        5.564     15537327 
Loop time of 2.38432e-06 on 2 procs for 0 steps with 1057 atoms

146.8% CPU use with 2 MPI tasks x 1 OpenMP threads

MPI task timing breakdown:
Section |  min time  |  avg time  |  max time  |%varavg| %total
---------------------------------------------------------------
Pair    | 0          | 0          | 0          |   0.0 |  0.00
Bond    | 0          | 0          | 0          |   0.0 |  0.00
Neigh   | 0          | 0          | 0          |   0.0 |  0.00
Comm    | 0          | 0          | 0          |   0.0 |  0.00
Output  | 0          | 0          | 0          |   0.0 |  0.00
Modify  | 0          | 0          | 0          |   0.0 |  0.00
Other   |            | 2.384e-06  |            |       |100.00

Nlocal:        528.500 ave         553 max         504 min
Histogram: 1 0 0 0 0 0 0 0 0 1
Nghost:        10437.0 ave       10502 max       10372 min
Histogram: 1 0 0 0 0 0 0 0 0 1
Neighs:    2.17270e+06 ave 2.20908e+06 max 2.13631e+06 min
Histogram: 1 0 0 0 0 0 0 0 0 1

Total # of neighbors = 4345392
Ave neighs/atom = 4111.0615
Ave special neighs/atom = 0.0000000
Neighbor list builds = 0
Dangerous builds = 0
Created 1 atoms
  create_atoms CPU = 0.000 seconds
998 atoms in group Ne
Neighbor list info ...
  update every 1 steps, delay 0 steps, check yes
  max neighbors/atom: 10000, page size: 100000
  master list distance cutoff = 22
  ghost atom cutoff = 22
  binsize = 11, bins = 5 5 1
  2 neighbor lists, perpetual/occasional/extra = 1 1 0
  (1) pair lj/cut, perpetual
      attributes: half, newton on
      pair build: half/bin/newton
      stencil: half/bin/3d
      bin: standard
  (2) compute group/group, occasional, copy from (1)
      attributes: half, newton on
      pair build: copy
      stencil: none
      bin: none
Setting up Verlet run ...
  Unit style    : real
  Current step  : 998
  Time step     : 1
Per MPI rank memory allocation (min/avg/max) = 16.44 | 16.63 | 16.82 Mbytes
Step Lz c_intEn 
WARNING: Too many warnings: 998 vs 100. All future warnings will be suppressed (src/lammps/src/thermo.cpp:423)
     998        5.564     15537647 
Loop time of 2.74849e-06 on 2 procs for 0 steps with 1058 atoms

145.5% CPU use with 2 MPI tasks x 1 OpenMP threads

MPI task timing breakdown:
Section |  min time  |  avg time  |  max time  |%varavg| %total
---------------------------------------------------------------
Pair    | 0          | 0          | 0          |   0.0 |  0.00
Bond    | 0          | 0          | 0          |   0.0 |  0.00
Neigh   | 0          | 0          | 0          |   0.0 |  0.00
Comm    | 0          | 0          | 0          |   0.0 |  0.00
Output  | 0          | 0          | 0          |   0.0 |  0.00
Modify  | 0          | 0          | 0          |   0.0 |  0.00
Other   |            | 2.748e-06  |            |       |100.00

Nlocal:        529.000 ave         554 max         504 min
Histogram: 1 0 0 0 0 0 0 0 0 1
Nghost:        10445.5 ave       10511 max       10380 min
Histogram: 1 0 0 0 0 0 0 0 0 1
Neighs:    2.17681e+06 ave 2.21129e+06 max 2.14233e+06 min
Histogram: 1 0 0 0 0 0 0 0 0 1

Total # of neighbors = 4353621
Ave neighs/atom = 4114.9537
Ave special neighs/atom = 0.0000000
Neighbor list builds = 0
Dangerous builds = 0
Created 1 atoms
  create_atoms CPU = 0.000 seconds
999 atoms in group Ne
Neighbor list info ...
  update every 1 steps, delay 0 steps, check yes
  max neighbors/atom: 10000, page size: 100000
  master list distance cutoff = 22
  ghost atom cutoff = 22
  binsize = 11, bins = 5 5 1
  2 neighbor lists, perpetual/occasional/extra = 1 1 0
  (1) pair lj/cut, perpetual
      attributes: half, newton on
      pair build: half/bin/newton
      stencil: half/bin/3d
      bin: standard
  (2) compute group/group, occasional, copy from (1)
      attributes: half, newton on
      pair build: copy
      stencil: none
      bin: none
Setting up Verlet run ...
  Unit style    : real
  Current step  : 999
  Time step     : 1
Per MPI rank memory allocation (min/avg/max) = 16.44 | 16.63 | 16.82 Mbytes
Step Lz c_intEn 
WARNING: Too many warnings: 999 vs 100. All future warnings will be suppressed (src/lammps/src/thermo.cpp:423)
     999        5.564     15537646 
Loop time of 2.23884e-06 on 2 procs for 0 steps with 1059 atoms

134.0% CPU use with 2 MPI tasks x 1 OpenMP threads

MPI task timing breakdown:
Section |  min time  |  avg time  |  max time  |%varavg| %total
---------------------------------------------------------------
Pair    | 0          | 0          | 0          |   0.0 |  0.00
Bond    | 0          | 0          | 0          |   0.0 |  0.00
Neigh   | 0          | 0          | 0          |   0.0 |  0.00
Comm    | 0          | 0          | 0          |   0.0 |  0.00
Output  | 0          | 0          | 0          |   0.0 |  0.00
Modify  | 0          | 0          | 0          |   0.0 |  0.00
Other   |            | 2.239e-06  |            |       |100.00

Nlocal:        529.500 ave         554 max         505 min
Histogram: 1 0 0 0 0 0 0 0 0 1
Nghost:        10454.0 ave       10519 max       10389 min
Histogram: 1 0 0 0 0 0 0 0 0 1
Neighs:    2.18095e+06 ave 2.21772e+06 max 2.14418e+06 min
Histogram: 1 0 0 0 0 0 0 0 0 1

Total # of neighbors = 4361898
Ave neighs/atom = 4118.8839
Ave special neighs/atom = 0.0000000
Neighbor list builds = 0
Dangerous builds = 0
Created 1 atoms
  create_atoms CPU = 0.000 seconds
1000 atoms in group Ne
Neighbor list info ...
  update every 1 steps, delay 0 steps, check yes
  max neighbors/atom: 10000, page size: 100000
  master list distance cutoff = 22
  ghost atom cutoff = 22
  binsize = 11, bins = 5 5 1
  2 neighbor lists, perpetual/occasional/extra = 1 1 0
  (1) pair lj/cut, perpetual
      attributes: half, newton on
      pair build: half/bin/newton
      stencil: half/bin/3d
      bin: standard
  (2) compute group/group, occasional, copy from (1)
      attributes: half, newton on
      pair build: copy
      stencil: none
      bin: none
Setting up Verlet run ...
  Unit style    : real
  Current step  : 1000
  Time step     : 1
Per MPI rank memory allocation (min/avg/max) = 16.44 | 16.63 | 16.82 Mbytes
Step Lz c_intEn 
WARNING: Too many warnings: 1000 vs 100. All future warnings will be suppressed (src/lammps/src/thermo.cpp:423)
    1000        5.564     15537697 
Loop time of 2.03051e-06 on 2 procs for 0 steps with 1060 atoms

123.1% CPU use with 2 MPI tasks x 1 OpenMP threads

MPI task timing breakdown:
Section |  min time  |  avg time  |  max time  |%varavg| %total
---------------------------------------------------------------
Pair    | 0          | 0          | 0          |   0.0 |  0.00
Bond    | 0          | 0          | 0          |   0.0 |  0.00
Neigh   | 0          | 0          | 0          |   0.0 |  0.00
Comm    | 0          | 0          | 0          |   0.0 |  0.00
Output  | 0          | 0          | 0          |   0.0 |  0.00
Modify  | 0          | 0          | 0          |   0.0 |  0.00
Other   |            | 2.031e-06  |            |       |100.00

Nlocal:        530.000 ave         554 max         506 min
Histogram: 1 0 0 0 0 0 0 0 0 1
Nghost:        10462.5 ave       10527 max       10398 min
Histogram: 1 0 0 0 0 0 0 0 0 1
Neighs:    2.18506e+06 ave 2.22384e+06 max 2.14629e+06 min
Histogram: 1 0 0 0 0 0 0 0 0 1

Total # of neighbors = 4370122
Ave neighs/atom = 4122.7566
Ave special neighs/atom = 0.0000000
Neighbor list builds = 0
Dangerous builds = 0

------ Accessible volume info ------

Number points inside = 0
Number points outside = 1000
Cylinder radius = 3.6
Cylinder length = 5.564

Cylinder volume (A^3) = 226.538486958474

Acessible volume (A^3) = 0

------------------------------------

Total wall time: 0:00:27
