LAMMPS (14 May 2021)
OMP_NUM_THREADS environment is not set. Defaulting to 1 thread. (src/lammps/src/comm.cpp:98)
  using 1 OpenMP thread(s) per MPI task
Reading data file ...
  orthogonal box = (-25.000000 -25.000000 0.0000000) to (25.000000 25.000000 5.5640000)
  1 by 2 by 1 MPI processor grid
  reading atoms ...
  60 atoms
Finding 1-2 1-3 1-4 neighbors ...
  special bond factors lj:    0        0        0       
  special bond factors coul:  0        0        0       
     0 = max # of 1-2 neighbors
     0 = max # of 1-3 neighbors
     0 = max # of 1-4 neighbors
     1 = max # of special neighbors
  special bonds CPU = 0.001 seconds
  read_data CPU = 0.006 seconds
60 atoms in group NT
Created 1 atoms
  create_atoms CPU = 0.000 seconds
1 atoms in group Ne
WARNING: No fixes defined, atoms won't move (src/lammps/src/verlet.cpp:55)
Neighbor list info ...
  update every 1 steps, delay 0 steps, check yes
  max neighbors/atom: 10000, page size: 100000
  master list distance cutoff = 22
  ghost atom cutoff = 22
  binsize = 11, bins = 5 5 1
  2 neighbor lists, perpetual/occasional/extra = 1 1 0
  (1) pair lj/cut, perpetual
      attributes: half, newton on
      pair build: half/bin/newton
      stencil: half/bin/3d
      bin: standard
  (2) compute group/group, occasional, copy from (1)
      attributes: half, newton on
      pair build: copy
      stencil: none
      bin: none
Setting up Verlet run ...
  Unit style    : real
  Current step  : 1
  Time step     : 1
Per MPI rank memory allocation (min/avg/max) = 6.039 | 6.039 | 6.039 Mbytes
Step Lz c_intEn 
       1        5.564    4553.1431 
Loop time of 5.13965e-06 on 2 procs for 0 steps with 61 atoms

68.1% CPU use with 2 MPI tasks x 1 OpenMP threads

MPI task timing breakdown:
Section |  min time  |  avg time  |  max time  |%varavg| %total
---------------------------------------------------------------
Pair    | 0          | 0          | 0          |   0.0 |  0.00
Bond    | 0          | 0          | 0          |   0.0 |  0.00
Neigh   | 0          | 0          | 0          |   0.0 |  0.00
Comm    | 0          | 0          | 0          |   0.0 |  0.00
Output  | 0          | 0          | 0          |   0.0 |  0.00
Modify  | 0          | 0          | 0          |   0.0 |  0.00
Other   |            | 5.14e-06   |            |       |100.00

Nlocal:        30.5000 ave          31 max          30 min
Histogram: 1 0 0 0 0 0 0 0 0 1
Nghost:        1049.50 ave        1050 max        1049 min
Histogram: 1 0 0 0 0 0 0 0 0 1
Neighs:        6915.00 ave        7273 max        6557 min
Histogram: 1 0 0 0 0 0 0 0 0 1

Total # of neighbors = 13830
Ave neighs/atom = 226.72131
Ave special neighs/atom = 0.0000000
Neighbor list builds = 0
Dangerous builds = 0
WARNING: Ignoring 'compress yes' for molecular system (src/lammps/src/delete_atoms.cpp:126)
Deleted 1 atoms, new total = 60
Created 1 atoms
  create_atoms CPU = 0.000 seconds
1 atoms in group Ne
WARNING: No fixes defined, atoms won't move (src/lammps/src/verlet.cpp:55)
Neighbor list info ...
  update every 1 steps, delay 0 steps, check yes
  max neighbors/atom: 10000, page size: 100000
  master list distance cutoff = 22
  ghost atom cutoff = 22
  binsize = 11, bins = 5 5 1
  2 neighbor lists, perpetual/occasional/extra = 1 1 0
  (1) pair lj/cut, perpetual
      attributes: half, newton on
      pair build: half/bin/newton
      stencil: half/bin/3d
      bin: standard
  (2) compute group/group, occasional, copy from (1)
      attributes: half, newton on
      pair build: copy
      stencil: none
      bin: none
Setting up Verlet run ...
  Unit style    : real
  Current step  : 2
  Time step     : 1
Per MPI rank memory allocation (min/avg/max) = 6.039 | 6.039 | 6.039 Mbytes
Step Lz c_intEn 
       2        5.564    16.788953 
Loop time of 5.70646e-06 on 2 procs for 0 steps with 61 atoms

70.1% CPU use with 2 MPI tasks x 1 OpenMP threads

MPI task timing breakdown:
Section |  min time  |  avg time  |  max time  |%varavg| %total
---------------------------------------------------------------
Pair    | 0          | 0          | 0          |   0.0 |  0.00
Bond    | 0          | 0          | 0          |   0.0 |  0.00
Neigh   | 0          | 0          | 0          |   0.0 |  0.00
Comm    | 0          | 0          | 0          |   0.0 |  0.00
Output  | 0          | 0          | 0          |   0.0 |  0.00
Modify  | 0          | 0          | 0          |   0.0 |  0.00
Other   |            | 5.706e-06  |            |       |100.00

Nlocal:        30.5000 ave          31 max          30 min
Histogram: 1 0 0 0 0 0 0 0 0 1
Nghost:        1040.50 ave        1041 max        1040 min
Histogram: 1 0 0 0 0 0 0 0 0 1
Neighs:        6918.00 ave        7505 max        6331 min
Histogram: 1 0 0 0 0 0 0 0 0 1

Total # of neighbors = 13836
Ave neighs/atom = 226.81967
Ave special neighs/atom = 0.0000000
Neighbor list builds = 0
Dangerous builds = 0
WARNING: Ignoring 'compress yes' for molecular system (src/lammps/src/delete_atoms.cpp:126)
Deleted 1 atoms, new total = 60
Created 1 atoms
  create_atoms CPU = 0.000 seconds
1 atoms in group Ne
WARNING: No fixes defined, atoms won't move (src/lammps/src/verlet.cpp:55)
Neighbor list info ...
  update every 1 steps, delay 0 steps, check yes
  max neighbors/atom: 10000, page size: 100000
  master list distance cutoff = 22
  ghost atom cutoff = 22
  binsize = 11, bins = 5 5 1
  2 neighbor lists, perpetual/occasional/extra = 1 1 0
  (1) pair lj/cut, perpetual
      attributes: half, newton on
      pair build: half/bin/newton
      stencil: half/bin/3d
      bin: standard
  (2) compute group/group, occasional, copy from (1)
      attributes: half, newton on
      pair build: copy
      stencil: none
      bin: none
Setting up Verlet run ...
  Unit style    : real
  Current step  : 3
  Time step     : 1
Per MPI rank memory allocation (min/avg/max) = 6.039 | 6.039 | 6.039 Mbytes
Step Lz c_intEn 
       3        5.564   -1.0886062 
Loop time of 6.12295e-06 on 2 procs for 0 steps with 61 atoms

73.5% CPU use with 2 MPI tasks x 1 OpenMP threads

MPI task timing breakdown:
Section |  min time  |  avg time  |  max time  |%varavg| %total
---------------------------------------------------------------
Pair    | 0          | 0          | 0          |   0.0 |  0.00
Bond    | 0          | 0          | 0          |   0.0 |  0.00
Neigh   | 0          | 0          | 0          |   0.0 |  0.00
Comm    | 0          | 0          | 0          |   0.0 |  0.00
Output  | 0          | 0          | 0          |   0.0 |  0.00
Modify  | 0          | 0          | 0          |   0.0 |  0.00
Other   |            | 6.123e-06  |            |       |100.00

Nlocal:        30.5000 ave          31 max          30 min
Histogram: 1 0 0 0 0 0 0 0 0 1
Nghost:        1040.50 ave        1041 max        1040 min
Histogram: 1 0 0 0 0 0 0 0 0 1
Neighs:        6914.50 ave        7507 max        6322 min
Histogram: 1 0 0 0 0 0 0 0 0 1

Total # of neighbors = 13829
Ave neighs/atom = 226.70492
Ave special neighs/atom = 0.0000000
Neighbor list builds = 0
Dangerous builds = 0
WARNING: Ignoring 'compress yes' for molecular system (src/lammps/src/delete_atoms.cpp:126)
Deleted 1 atoms, new total = 60
Created 1 atoms
  create_atoms CPU = 0.000 seconds
1 atoms in group Ne
WARNING: No fixes defined, atoms won't move (src/lammps/src/verlet.cpp:55)
Neighbor list info ...
  update every 1 steps, delay 0 steps, check yes
  max neighbors/atom: 10000, page size: 100000
  master list distance cutoff = 22
  ghost atom cutoff = 22
  binsize = 11, bins = 5 5 1
  2 neighbor lists, perpetual/occasional/extra = 1 1 0
  (1) pair lj/cut, perpetual
      attributes: half, newton on
      pair build: half/bin/newton
      stencil: half/bin/3d
      bin: standard
  (2) compute group/group, occasional, copy from (1)
      attributes: half, newton on
      pair build: copy
      stencil: none
      bin: none
Setting up Verlet run ...
  Unit style    : real
  Current step  : 4
  Time step     : 1
Per MPI rank memory allocation (min/avg/max) = 6.039 | 6.039 | 6.039 Mbytes
Step Lz c_intEn 
       4        5.564    604.90974 
Loop time of 6.29151e-06 on 2 procs for 0 steps with 61 atoms

79.5% CPU use with 2 MPI tasks x 1 OpenMP threads

MPI task timing breakdown:
Section |  min time  |  avg time  |  max time  |%varavg| %total
---------------------------------------------------------------
Pair    | 0          | 0          | 0          |   0.0 |  0.00
Bond    | 0          | 0          | 0          |   0.0 |  0.00
Neigh   | 0          | 0          | 0          |   0.0 |  0.00
Comm    | 0          | 0          | 0          |   0.0 |  0.00
Output  | 0          | 0          | 0          |   0.0 |  0.00
Modify  | 0          | 0          | 0          |   0.0 |  0.00
Other   |            | 6.292e-06  |            |       |100.00

Nlocal:        30.5000 ave          31 max          30 min
Histogram: 1 0 0 0 0 0 0 0 0 1
Nghost:        1040.50 ave        1041 max        1040 min
Histogram: 1 0 0 0 0 0 0 0 0 1
Neighs:        6916.50 ave        7491 max        6342 min
Histogram: 1 0 0 0 0 0 0 0 0 1

Total # of neighbors = 13833
Ave neighs/atom = 226.77049
Ave special neighs/atom = 0.0000000
Neighbor list builds = 0
Dangerous builds = 0
WARNING: Ignoring 'compress yes' for molecular system (src/lammps/src/delete_atoms.cpp:126)
Deleted 1 atoms, new total = 60
Created 1 atoms
  create_atoms CPU = 0.000 seconds
1 atoms in group Ne
WARNING: No fixes defined, atoms won't move (src/lammps/src/verlet.cpp:55)
Neighbor list info ...
  update every 1 steps, delay 0 steps, check yes
  max neighbors/atom: 10000, page size: 100000
  master list distance cutoff = 22
  ghost atom cutoff = 22
  binsize = 11, bins = 5 5 1
  2 neighbor lists, perpetual/occasional/extra = 1 1 0
  (1) pair lj/cut, perpetual
      attributes: half, newton on
      pair build: half/bin/newton
      stencil: half/bin/3d
      bin: standard
  (2) compute group/group, occasional, copy from (1)
      attributes: half, newton on
      pair build: copy
      stencil: none
      bin: none
Setting up Verlet run ...
  Unit style    : real
  Current step  : 5
  Time step     : 1
Per MPI rank memory allocation (min/avg/max) = 6.039 | 6.039 | 6.039 Mbytes
Step Lz c_intEn 
       5        5.564   -1.1121965 
Loop time of 8.6896e-06 on 2 procs for 0 steps with 61 atoms

74.8% CPU use with 2 MPI tasks x 1 OpenMP threads

MPI task timing breakdown:
Section |  min time  |  avg time  |  max time  |%varavg| %total
---------------------------------------------------------------
Pair    | 0          | 0          | 0          |   0.0 |  0.00
Bond    | 0          | 0          | 0          |   0.0 |  0.00
Neigh   | 0          | 0          | 0          |   0.0 |  0.00
Comm    | 0          | 0          | 0          |   0.0 |  0.00
Output  | 0          | 0          | 0          |   0.0 |  0.00
Modify  | 0          | 0          | 0          |   0.0 |  0.00
Other   |            | 8.69e-06   |            |       |100.00

Nlocal:        30.5000 ave          31 max          30 min
Histogram: 1 0 0 0 0 0 0 0 0 1
Nghost:        1040.50 ave        1041 max        1040 min
Histogram: 1 0 0 0 0 0 0 0 0 1
Neighs:        6915.50 ave        7255 max        6576 min
Histogram: 1 0 0 0 0 0 0 0 0 1

Total # of neighbors = 13831
Ave neighs/atom = 226.73770
Ave special neighs/atom = 0.0000000
Neighbor list builds = 0
Dangerous builds = 0
WARNING: Ignoring 'compress yes' for molecular system (src/lammps/src/delete_atoms.cpp:126)
Deleted 1 atoms, new total = 60
Created 1 atoms
  create_atoms CPU = 0.000 seconds
1 atoms in group Ne
WARNING: No fixes defined, atoms won't move (src/lammps/src/verlet.cpp:55)
Neighbor list info ...
  update every 1 steps, delay 0 steps, check yes
  max neighbors/atom: 10000, page size: 100000
  master list distance cutoff = 22
  ghost atom cutoff = 22
  binsize = 11, bins = 5 5 1
  2 neighbor lists, perpetual/occasional/extra = 1 1 0
  (1) pair lj/cut, perpetual
      attributes: half, newton on
      pair build: half/bin/newton
      stencil: half/bin/3d
      bin: standard
  (2) compute group/group, occasional, copy from (1)
      attributes: half, newton on
      pair build: copy
      stencil: none
      bin: none
Setting up Verlet run ...
  Unit style    : real
  Current step  : 6
  Time step     : 1
Per MPI rank memory allocation (min/avg/max) = 6.039 | 6.039 | 6.039 Mbytes
Step Lz c_intEn 
       6        5.564    31.295609 
Loop time of 5.61606e-06 on 2 procs for 0 steps with 61 atoms

115.7% CPU use with 2 MPI tasks x 1 OpenMP threads

MPI task timing breakdown:
Section |  min time  |  avg time  |  max time  |%varavg| %total
---------------------------------------------------------------
Pair    | 0          | 0          | 0          |   0.0 |  0.00
Bond    | 0          | 0          | 0          |   0.0 |  0.00
Neigh   | 0          | 0          | 0          |   0.0 |  0.00
Comm    | 0          | 0          | 0          |   0.0 |  0.00
Output  | 0          | 0          | 0          |   0.0 |  0.00
Modify  | 0          | 0          | 0          |   0.0 |  0.00
Other   |            | 5.616e-06  |            |       |100.00

Nlocal:        30.5000 ave          31 max          30 min
Histogram: 1 0 0 0 0 0 0 0 0 1
Nghost:        1040.50 ave        1041 max        1040 min
Histogram: 1 0 0 0 0 0 0 0 0 1
Neighs:        6917.00 ave        7505 max        6329 min
Histogram: 1 0 0 0 0 0 0 0 0 1

Total # of neighbors = 13834
Ave neighs/atom = 226.78689
Ave special neighs/atom = 0.0000000
Neighbor list builds = 0
Dangerous builds = 0
WARNING: Ignoring 'compress yes' for molecular system (src/lammps/src/delete_atoms.cpp:126)
Deleted 1 atoms, new total = 60
Created 1 atoms
  create_atoms CPU = 0.000 seconds
1 atoms in group Ne
WARNING: No fixes defined, atoms won't move (src/lammps/src/verlet.cpp:55)
Neighbor list info ...
  update every 1 steps, delay 0 steps, check yes
  max neighbors/atom: 10000, page size: 100000
  master list distance cutoff = 22
  ghost atom cutoff = 22
  binsize = 11, bins = 5 5 1
  2 neighbor lists, perpetual/occasional/extra = 1 1 0
  (1) pair lj/cut, perpetual
      attributes: half, newton on
      pair build: half/bin/newton
      stencil: half/bin/3d
      bin: standard
  (2) compute group/group, occasional, copy from (1)
      attributes: half, newton on
      pair build: copy
      stencil: none
      bin: none
Setting up Verlet run ...
  Unit style    : real
  Current step  : 7
  Time step     : 1
Per MPI rank memory allocation (min/avg/max) = 6.039 | 6.039 | 6.039 Mbytes
Step Lz c_intEn 
       7        5.564    1055.2669 
Loop time of 5.07354e-06 on 2 procs for 0 steps with 61 atoms

59.1% CPU use with 2 MPI tasks x 1 OpenMP threads

MPI task timing breakdown:
Section |  min time  |  avg time  |  max time  |%varavg| %total
---------------------------------------------------------------
Pair    | 0          | 0          | 0          |   0.0 |  0.00
Bond    | 0          | 0          | 0          |   0.0 |  0.00
Neigh   | 0          | 0          | 0          |   0.0 |  0.00
Comm    | 0          | 0          | 0          |   0.0 |  0.00
Output  | 0          | 0          | 0          |   0.0 |  0.00
Modify  | 0          | 0          | 0          |   0.0 |  0.00
Other   |            | 5.074e-06  |            |       |100.00

Nlocal:        30.5000 ave          31 max          30 min
Histogram: 1 0 0 0 0 0 0 0 0 1
Nghost:        1049.50 ave        1050 max        1049 min
Histogram: 1 0 0 0 0 0 0 0 0 1
Neighs:        6915.50 ave        7261 max        6570 min
Histogram: 1 0 0 0 0 0 0 0 0 1

Total # of neighbors = 13831
Ave neighs/atom = 226.73770
Ave special neighs/atom = 0.0000000
Neighbor list builds = 0
Dangerous builds = 0
WARNING: Ignoring 'compress yes' for molecular system (src/lammps/src/delete_atoms.cpp:126)
Deleted 1 atoms, new total = 60
Created 1 atoms
  create_atoms CPU = 0.000 seconds
1 atoms in group Ne
WARNING: No fixes defined, atoms won't move (src/lammps/src/verlet.cpp:55)
Neighbor list info ...
  update every 1 steps, delay 0 steps, check yes
  max neighbors/atom: 10000, page size: 100000
  master list distance cutoff = 22
  ghost atom cutoff = 22
  binsize = 11, bins = 5 5 1
  2 neighbor lists, perpetual/occasional/extra = 1 1 0
  (1) pair lj/cut, perpetual
      attributes: half, newton on
      pair build: half/bin/newton
      stencil: half/bin/3d
      bin: standard
  (2) compute group/group, occasional, copy from (1)
      attributes: half, newton on
      pair build: copy
      stencil: none
      bin: none
Setting up Verlet run ...
  Unit style    : real
  Current step  : 8
  Time step     : 1
Per MPI rank memory allocation (min/avg/max) = 6.039 | 6.039 | 6.039 Mbytes
Step Lz c_intEn 
       8        5.564     46.92826 
Loop time of 4.95078e-06 on 2 procs for 0 steps with 61 atoms

50.5% CPU use with 2 MPI tasks x 1 OpenMP threads

MPI task timing breakdown:
Section |  min time  |  avg time  |  max time  |%varavg| %total
---------------------------------------------------------------
Pair    | 0          | 0          | 0          |   0.0 |  0.00
Bond    | 0          | 0          | 0          |   0.0 |  0.00
Neigh   | 0          | 0          | 0          |   0.0 |  0.00
Comm    | 0          | 0          | 0          |   0.0 |  0.00
Output  | 0          | 0          | 0          |   0.0 |  0.00
Modify  | 0          | 0          | 0          |   0.0 |  0.00
Other   |            | 4.951e-06  |            |       |100.00

Nlocal:        30.5000 ave          31 max          30 min
Histogram: 1 0 0 0 0 0 0 0 0 1
Nghost:        1040.50 ave        1041 max        1040 min
Histogram: 1 0 0 0 0 0 0 0 0 1
Neighs:        6915.00 ave        7257 max        6573 min
Histogram: 1 0 0 0 0 0 0 0 0 1

Total # of neighbors = 13830
Ave neighs/atom = 226.72131
Ave special neighs/atom = 0.0000000
Neighbor list builds = 0
Dangerous builds = 0
WARNING: Ignoring 'compress yes' for molecular system (src/lammps/src/delete_atoms.cpp:126)
Deleted 1 atoms, new total = 60
Created 1 atoms
  create_atoms CPU = 0.000 seconds
1 atoms in group Ne
WARNING: No fixes defined, atoms won't move (src/lammps/src/verlet.cpp:55)
Neighbor list info ...
  update every 1 steps, delay 0 steps, check yes
  max neighbors/atom: 10000, page size: 100000
  master list distance cutoff = 22
  ghost atom cutoff = 22
  binsize = 11, bins = 5 5 1
  2 neighbor lists, perpetual/occasional/extra = 1 1 0
  (1) pair lj/cut, perpetual
      attributes: half, newton on
      pair build: half/bin/newton
      stencil: half/bin/3d
      bin: standard
  (2) compute group/group, occasional, copy from (1)
      attributes: half, newton on
      pair build: copy
      stencil: none
      bin: none
Setting up Verlet run ...
  Unit style    : real
  Current step  : 9
  Time step     : 1
Per MPI rank memory allocation (min/avg/max) = 6.039 | 6.039 | 6.039 Mbytes
Step Lz c_intEn 
       9        5.564    19.388058 
Loop time of 4.56458e-06 on 2 procs for 0 steps with 61 atoms

65.7% CPU use with 2 MPI tasks x 1 OpenMP threads

MPI task timing breakdown:
Section |  min time  |  avg time  |  max time  |%varavg| %total
---------------------------------------------------------------
Pair    | 0          | 0          | 0          |   0.0 |  0.00
Bond    | 0          | 0          | 0          |   0.0 |  0.00
Neigh   | 0          | 0          | 0          |   0.0 |  0.00
Comm    | 0          | 0          | 0          |   0.0 |  0.00
Output  | 0          | 0          | 0          |   0.0 |  0.00
Modify  | 0          | 0          | 0          |   0.0 |  0.00
Other   |            | 4.565e-06  |            |       |100.00

Nlocal:        30.5000 ave          31 max          30 min
Histogram: 1 0 0 0 0 0 0 0 0 1
Nghost:        1040.50 ave        1041 max        1040 min
Histogram: 1 0 0 0 0 0 0 0 0 1
Neighs:        6912.50 ave        7487 max        6338 min
Histogram: 1 0 0 0 0 0 0 0 0 1

Total # of neighbors = 13825
Ave neighs/atom = 226.63934
Ave special neighs/atom = 0.0000000
Neighbor list builds = 0
Dangerous builds = 0
WARNING: Ignoring 'compress yes' for molecular system (src/lammps/src/delete_atoms.cpp:126)
Deleted 1 atoms, new total = 60
Created 1 atoms
  create_atoms CPU = 0.000 seconds
1 atoms in group Ne
WARNING: No fixes defined, atoms won't move (src/lammps/src/verlet.cpp:55)
Neighbor list info ...
  update every 1 steps, delay 0 steps, check yes
  max neighbors/atom: 10000, page size: 100000
  master list distance cutoff = 22
  ghost atom cutoff = 22
  binsize = 11, bins = 5 5 1
  2 neighbor lists, perpetual/occasional/extra = 1 1 0
  (1) pair lj/cut, perpetual
      attributes: half, newton on
      pair build: half/bin/newton
      stencil: half/bin/3d
      bin: standard
  (2) compute group/group, occasional, copy from (1)
      attributes: half, newton on
      pair build: copy
      stencil: none
      bin: none
Setting up Verlet run ...
  Unit style    : real
  Current step  : 10
  Time step     : 1
Per MPI rank memory allocation (min/avg/max) = 6.039 | 6.039 | 6.039 Mbytes
Step Lz c_intEn 
      10        5.564    77.133526 
Loop time of 5.15188e-06 on 2 procs for 0 steps with 61 atoms

77.6% CPU use with 2 MPI tasks x 1 OpenMP threads

MPI task timing breakdown:
Section |  min time  |  avg time  |  max time  |%varavg| %total
---------------------------------------------------------------
Pair    | 0          | 0          | 0          |   0.0 |  0.00
Bond    | 0          | 0          | 0          |   0.0 |  0.00
Neigh   | 0          | 0          | 0          |   0.0 |  0.00
Comm    | 0          | 0          | 0          |   0.0 |  0.00
Output  | 0          | 0          | 0          |   0.0 |  0.00
Modify  | 0          | 0          | 0          |   0.0 |  0.00
Other   |            | 5.152e-06  |            |       |100.00

Nlocal:        30.5000 ave          31 max          30 min
Histogram: 1 0 0 0 0 0 0 0 0 1
Nghost:        1040.50 ave        1041 max        1040 min
Histogram: 1 0 0 0 0 0 0 0 0 1
Neighs:        6916.00 ave        7274 max        6558 min
Histogram: 1 0 0 0 0 0 0 0 0 1

Total # of neighbors = 13832
Ave neighs/atom = 226.75410
Ave special neighs/atom = 0.0000000
Neighbor list builds = 0
Dangerous builds = 0
WARNING: Ignoring 'compress yes' for molecular system (src/lammps/src/delete_atoms.cpp:126)
Deleted 1 atoms, new total = 60
Created 1 atoms
  create_atoms CPU = 0.000 seconds
1 atoms in group Ne
WARNING: No fixes defined, atoms won't move (src/lammps/src/verlet.cpp:55)
Neighbor list info ...
  update every 1 steps, delay 0 steps, check yes
  max neighbors/atom: 10000, page size: 100000
  master list distance cutoff = 22
  ghost atom cutoff = 22
  binsize = 11, bins = 5 5 1
  2 neighbor lists, perpetual/occasional/extra = 1 1 0
  (1) pair lj/cut, perpetual
      attributes: half, newton on
      pair build: half/bin/newton
      stencil: half/bin/3d
      bin: standard
  (2) compute group/group, occasional, copy from (1)
      attributes: half, newton on
      pair build: copy
      stencil: none
      bin: none
Setting up Verlet run ...
  Unit style    : real
  Current step  : 11
  Time step     : 1
Per MPI rank memory allocation (min/avg/max) = 6.039 | 6.039 | 6.039 Mbytes
Step Lz c_intEn 
      11        5.564    5883.7188 
Loop time of 5.34265e-06 on 2 procs for 0 steps with 61 atoms

56.2% CPU use with 2 MPI tasks x 1 OpenMP threads

MPI task timing breakdown:
Section |  min time  |  avg time  |  max time  |%varavg| %total
---------------------------------------------------------------
Pair    | 0          | 0          | 0          |   0.0 |  0.00
Bond    | 0          | 0          | 0          |   0.0 |  0.00
Neigh   | 0          | 0          | 0          |   0.0 |  0.00
Comm    | 0          | 0          | 0          |   0.0 |  0.00
Output  | 0          | 0          | 0          |   0.0 |  0.00
Modify  | 0          | 0          | 0          |   0.0 |  0.00
Other   |            | 5.343e-06  |            |       |100.00

Nlocal:        30.5000 ave          31 max          30 min
Histogram: 1 0 0 0 0 0 0 0 0 1
Nghost:        1045.00 ave        1050 max        1040 min
Histogram: 1 0 0 0 0 0 0 0 0 1
Neighs:        6914.50 ave        7494 max        6335 min
Histogram: 1 0 0 0 0 0 0 0 0 1

Total # of neighbors = 13829
Ave neighs/atom = 226.70492
Ave special neighs/atom = 0.0000000
Neighbor list builds = 0
Dangerous builds = 0
WARNING: Ignoring 'compress yes' for molecular system (src/lammps/src/delete_atoms.cpp:126)
Deleted 1 atoms, new total = 60
Created 1 atoms
  create_atoms CPU = 0.000 seconds
1 atoms in group Ne
WARNING: No fixes defined, atoms won't move (src/lammps/src/verlet.cpp:55)
Neighbor list info ...
  update every 1 steps, delay 0 steps, check yes
  max neighbors/atom: 10000, page size: 100000
  master list distance cutoff = 22
  ghost atom cutoff = 22
  binsize = 11, bins = 5 5 1
  2 neighbor lists, perpetual/occasional/extra = 1 1 0
  (1) pair lj/cut, perpetual
      attributes: half, newton on
      pair build: half/bin/newton
      stencil: half/bin/3d
      bin: standard
  (2) compute group/group, occasional, copy from (1)
      attributes: half, newton on
      pair build: copy
      stencil: none
      bin: none
Setting up Verlet run ...
  Unit style    : real
  Current step  : 12
  Time step     : 1
Per MPI rank memory allocation (min/avg/max) = 6.039 | 6.039 | 6.039 Mbytes
Step Lz c_intEn 
      12        5.564  -0.97955482 
Loop time of 5.33594e-06 on 2 procs for 0 steps with 61 atoms

103.1% CPU use with 2 MPI tasks x 1 OpenMP threads

MPI task timing breakdown:
Section |  min time  |  avg time  |  max time  |%varavg| %total
---------------------------------------------------------------
Pair    | 0          | 0          | 0          |   0.0 |  0.00
Bond    | 0          | 0          | 0          |   0.0 |  0.00
Neigh   | 0          | 0          | 0          |   0.0 |  0.00
Comm    | 0          | 0          | 0          |   0.0 |  0.00
Output  | 0          | 0          | 0          |   0.0 |  0.00
Modify  | 0          | 0          | 0          |   0.0 |  0.00
Other   |            | 5.336e-06  |            |       |100.00

Nlocal:        30.5000 ave          31 max          30 min
Histogram: 1 0 0 0 0 0 0 0 0 1
Nghost:        1040.50 ave        1041 max        1040 min
Histogram: 1 0 0 0 0 0 0 0 0 1
Neighs:        6915.00 ave        7510 max        6320 min
Histogram: 1 0 0 0 0 0 0 0 0 1

Total # of neighbors = 13830
Ave neighs/atom = 226.72131
Ave special neighs/atom = 0.0000000
Neighbor list builds = 0
Dangerous builds = 0
WARNING: Ignoring 'compress yes' for molecular system (src/lammps/src/delete_atoms.cpp:126)
Deleted 1 atoms, new total = 60
Created 1 atoms
  create_atoms CPU = 0.000 seconds
1 atoms in group Ne
WARNING: No fixes defined, atoms won't move (src/lammps/src/verlet.cpp:55)
Neighbor list info ...
  update every 1 steps, delay 0 steps, check yes
  max neighbors/atom: 10000, page size: 100000
  master list distance cutoff = 22
  ghost atom cutoff = 22
  binsize = 11, bins = 5 5 1
  2 neighbor lists, perpetual/occasional/extra = 1 1 0
  (1) pair lj/cut, perpetual
      attributes: half, newton on
      pair build: half/bin/newton
      stencil: half/bin/3d
      bin: standard
  (2) compute group/group, occasional, copy from (1)
      attributes: half, newton on
      pair build: copy
      stencil: none
      bin: none
Setting up Verlet run ...
  Unit style    : real
  Current step  : 13
  Time step     : 1
Per MPI rank memory allocation (min/avg/max) = 6.039 | 6.039 | 6.039 Mbytes
Step Lz c_intEn 
      13        5.564    318.74656 
Loop time of 3.96971e-06 on 2 procs for 0 steps with 61 atoms

63.0% CPU use with 2 MPI tasks x 1 OpenMP threads

MPI task timing breakdown:
Section |  min time  |  avg time  |  max time  |%varavg| %total
---------------------------------------------------------------
Pair    | 0          | 0          | 0          |   0.0 |  0.00
Bond    | 0          | 0          | 0          |   0.0 |  0.00
Neigh   | 0          | 0          | 0          |   0.0 |  0.00
Comm    | 0          | 0          | 0          |   0.0 |  0.00
Output  | 0          | 0          | 0          |   0.0 |  0.00
Modify  | 0          | 0          | 0          |   0.0 |  0.00
Other   |            | 3.97e-06   |            |       |100.00

Nlocal:        30.5000 ave          31 max          30 min
Histogram: 1 0 0 0 0 0 0 0 0 1
Nghost:        1040.50 ave        1041 max        1040 min
Histogram: 1 0 0 0 0 0 0 0 0 1
Neighs:        6912.00 ave        7488 max        6336 min
Histogram: 1 0 0 0 0 0 0 0 0 1

Total # of neighbors = 13824
Ave neighs/atom = 226.62295
Ave special neighs/atom = 0.0000000
Neighbor list builds = 0
Dangerous builds = 0
WARNING: Ignoring 'compress yes' for molecular system (src/lammps/src/delete_atoms.cpp:126)
Deleted 1 atoms, new total = 60
Created 1 atoms
  create_atoms CPU = 0.000 seconds
1 atoms in group Ne
WARNING: No fixes defined, atoms won't move (src/lammps/src/verlet.cpp:55)
Neighbor list info ...
  update every 1 steps, delay 0 steps, check yes
  max neighbors/atom: 10000, page size: 100000
  master list distance cutoff = 22
  ghost atom cutoff = 22
  binsize = 11, bins = 5 5 1
  2 neighbor lists, perpetual/occasional/extra = 1 1 0
  (1) pair lj/cut, perpetual
      attributes: half, newton on
      pair build: half/bin/newton
      stencil: half/bin/3d
      bin: standard
  (2) compute group/group, occasional, copy from (1)
      attributes: half, newton on
      pair build: copy
      stencil: none
      bin: none
Setting up Verlet run ...
  Unit style    : real
  Current step  : 14
  Time step     : 1
Per MPI rank memory allocation (min/avg/max) = 6.039 | 6.039 | 6.039 Mbytes
Step Lz c_intEn 
      14        5.564    3.3185109 
Loop time of 3.86623e-06 on 2 procs for 0 steps with 61 atoms

77.6% CPU use with 2 MPI tasks x 1 OpenMP threads

MPI task timing breakdown:
Section |  min time  |  avg time  |  max time  |%varavg| %total
---------------------------------------------------------------
Pair    | 0          | 0          | 0          |   0.0 |  0.00
Bond    | 0          | 0          | 0          |   0.0 |  0.00
Neigh   | 0          | 0          | 0          |   0.0 |  0.00
Comm    | 0          | 0          | 0          |   0.0 |  0.00
Output  | 0          | 0          | 0          |   0.0 |  0.00
Modify  | 0          | 0          | 0          |   0.0 |  0.00
Other   |            | 3.866e-06  |            |       |100.00

Nlocal:        30.5000 ave          31 max          30 min
Histogram: 1 0 0 0 0 0 0 0 0 1
Nghost:        1040.50 ave        1041 max        1040 min
Histogram: 1 0 0 0 0 0 0 0 0 1
Neighs:        6913.50 ave        7266 max        6561 min
Histogram: 1 0 0 0 0 0 0 0 0 1

Total # of neighbors = 13827
Ave neighs/atom = 226.67213
Ave special neighs/atom = 0.0000000
Neighbor list builds = 0
Dangerous builds = 0
WARNING: Ignoring 'compress yes' for molecular system (src/lammps/src/delete_atoms.cpp:126)
Deleted 1 atoms, new total = 60
Created 1 atoms
  create_atoms CPU = 0.000 seconds
1 atoms in group Ne
WARNING: No fixes defined, atoms won't move (src/lammps/src/verlet.cpp:55)
Neighbor list info ...
  update every 1 steps, delay 0 steps, check yes
  max neighbors/atom: 10000, page size: 100000
  master list distance cutoff = 22
  ghost atom cutoff = 22
  binsize = 11, bins = 5 5 1
  2 neighbor lists, perpetual/occasional/extra = 1 1 0
  (1) pair lj/cut, perpetual
      attributes: half, newton on
      pair build: half/bin/newton
      stencil: half/bin/3d
      bin: standard
  (2) compute group/group, occasional, copy from (1)
      attributes: half, newton on
      pair build: copy
      stencil: none
      bin: none
Setting up Verlet run ...
  Unit style    : real
  Current step  : 15
  Time step     : 1
Per MPI rank memory allocation (min/avg/max) = 6.039 | 6.039 | 6.039 Mbytes
Step Lz c_intEn 
      15        5.564    304.66332 
Loop time of 6.14345e-06 on 2 procs for 0 steps with 61 atoms

97.7% CPU use with 2 MPI tasks x 1 OpenMP threads

MPI task timing breakdown:
Section |  min time  |  avg time  |  max time  |%varavg| %total
---------------------------------------------------------------
Pair    | 0          | 0          | 0          |   0.0 |  0.00
Bond    | 0          | 0          | 0          |   0.0 |  0.00
Neigh   | 0          | 0          | 0          |   0.0 |  0.00
Comm    | 0          | 0          | 0          |   0.0 |  0.00
Output  | 0          | 0          | 0          |   0.0 |  0.00
Modify  | 0          | 0          | 0          |   0.0 |  0.00
Other   |            | 6.143e-06  |            |       |100.00

Nlocal:        30.5000 ave          31 max          30 min
Histogram: 1 0 0 0 0 0 0 0 0 1
Nghost:        1040.50 ave        1041 max        1040 min
Histogram: 1 0 0 0 0 0 0 0 0 1
Neighs:        6912.50 ave        7504 max        6321 min
Histogram: 1 0 0 0 0 0 0 0 0 1

Total # of neighbors = 13825
Ave neighs/atom = 226.63934
Ave special neighs/atom = 0.0000000
Neighbor list builds = 0
Dangerous builds = 0
WARNING: Ignoring 'compress yes' for molecular system (src/lammps/src/delete_atoms.cpp:126)
Deleted 1 atoms, new total = 60
Created 1 atoms
  create_atoms CPU = 0.000 seconds
1 atoms in group Ne
WARNING: No fixes defined, atoms won't move (src/lammps/src/verlet.cpp:55)
Neighbor list info ...
  update every 1 steps, delay 0 steps, check yes
  max neighbors/atom: 10000, page size: 100000
  master list distance cutoff = 22
  ghost atom cutoff = 22
  binsize = 11, bins = 5 5 1
  2 neighbor lists, perpetual/occasional/extra = 1 1 0
  (1) pair lj/cut, perpetual
      attributes: half, newton on
      pair build: half/bin/newton
      stencil: half/bin/3d
      bin: standard
  (2) compute group/group, occasional, copy from (1)
      attributes: half, newton on
      pair build: copy
      stencil: none
      bin: none
Setting up Verlet run ...
  Unit style    : real
  Current step  : 16
  Time step     : 1
Per MPI rank memory allocation (min/avg/max) = 6.039 | 6.039 | 6.039 Mbytes
Step Lz c_intEn 
      16        5.564    3.7796271 
Loop time of 5.5515e-06 on 2 procs for 0 steps with 61 atoms

63.0% CPU use with 2 MPI tasks x 1 OpenMP threads

MPI task timing breakdown:
Section |  min time  |  avg time  |  max time  |%varavg| %total
---------------------------------------------------------------
Pair    | 0          | 0          | 0          |   0.0 |  0.00
Bond    | 0          | 0          | 0          |   0.0 |  0.00
Neigh   | 0          | 0          | 0          |   0.0 |  0.00
Comm    | 0          | 0          | 0          |   0.0 |  0.00
Output  | 0          | 0          | 0          |   0.0 |  0.00
Modify  | 0          | 0          | 0          |   0.0 |  0.00
Other   |            | 5.551e-06  |            |       |100.00

Nlocal:        30.5000 ave          31 max          30 min
Histogram: 1 0 0 0 0 0 0 0 0 1
Nghost:        1040.50 ave        1041 max        1040 min
Histogram: 1 0 0 0 0 0 0 0 0 1
Neighs:        6913.00 ave        7267 max        6559 min
Histogram: 1 0 0 0 0 0 0 0 0 1

Total # of neighbors = 13826
Ave neighs/atom = 226.65574
Ave special neighs/atom = 0.0000000
Neighbor list builds = 0
Dangerous builds = 0
WARNING: Ignoring 'compress yes' for molecular system (src/lammps/src/delete_atoms.cpp:126)
Deleted 1 atoms, new total = 60
Created 1 atoms
  create_atoms CPU = 0.000 seconds
1 atoms in group Ne
WARNING: No fixes defined, atoms won't move (src/lammps/src/verlet.cpp:55)
Neighbor list info ...
  update every 1 steps, delay 0 steps, check yes
  max neighbors/atom: 10000, page size: 100000
  master list distance cutoff = 22
  ghost atom cutoff = 22
  binsize = 11, bins = 5 5 1
  2 neighbor lists, perpetual/occasional/extra = 1 1 0
  (1) pair lj/cut, perpetual
      attributes: half, newton on
      pair build: half/bin/newton
      stencil: half/bin/3d
      bin: standard
  (2) compute group/group, occasional, copy from (1)
      attributes: half, newton on
      pair build: copy
      stencil: none
      bin: none
Setting up Verlet run ...
  Unit style    : real
  Current step  : 17
  Time step     : 1
Per MPI rank memory allocation (min/avg/max) = 6.039 | 6.039 | 6.039 Mbytes
Step Lz c_intEn 
      17        5.564   0.70903418 
Loop time of 5.14379e-06 on 2 procs for 0 steps with 61 atoms

48.6% CPU use with 2 MPI tasks x 1 OpenMP threads

MPI task timing breakdown:
Section |  min time  |  avg time  |  max time  |%varavg| %total
---------------------------------------------------------------
Pair    | 0          | 0          | 0          |   0.0 |  0.00
Bond    | 0          | 0          | 0          |   0.0 |  0.00
Neigh   | 0          | 0          | 0          |   0.0 |  0.00
Comm    | 0          | 0          | 0          |   0.0 |  0.00
Output  | 0          | 0          | 0          |   0.0 |  0.00
Modify  | 0          | 0          | 0          |   0.0 |  0.00
Other   |            | 5.144e-06  |            |       |100.00

Nlocal:        30.5000 ave          31 max          30 min
Histogram: 1 0 0 0 0 0 0 0 0 1
Nghost:        1040.50 ave        1041 max        1040 min
Histogram: 1 0 0 0 0 0 0 0 0 1
Neighs:        6918.00 ave        7504 max        6332 min
Histogram: 1 0 0 0 0 0 0 0 0 1

Total # of neighbors = 13836
Ave neighs/atom = 226.81967
Ave special neighs/atom = 0.0000000
Neighbor list builds = 0
Dangerous builds = 0
WARNING: Ignoring 'compress yes' for molecular system (src/lammps/src/delete_atoms.cpp:126)
Deleted 1 atoms, new total = 60
Created 1 atoms
  create_atoms CPU = 0.000 seconds
1 atoms in group Ne
WARNING: No fixes defined, atoms won't move (src/lammps/src/verlet.cpp:55)
Neighbor list info ...
  update every 1 steps, delay 0 steps, check yes
  max neighbors/atom: 10000, page size: 100000
  master list distance cutoff = 22
  ghost atom cutoff = 22
  binsize = 11, bins = 5 5 1
  2 neighbor lists, perpetual/occasional/extra = 1 1 0
  (1) pair lj/cut, perpetual
      attributes: half, newton on
      pair build: half/bin/newton
      stencil: half/bin/3d
      bin: standard
  (2) compute group/group, occasional, copy from (1)
      attributes: half, newton on
      pair build: copy
      stencil: none
      bin: none
Setting up Verlet run ...
  Unit style    : real
  Current step  : 18
  Time step     : 1
Per MPI rank memory allocation (min/avg/max) = 6.039 | 6.039 | 6.039 Mbytes
Step Lz c_intEn 
      18        5.564   -1.2493804 
Loop time of 5.51362e-06 on 2 procs for 0 steps with 61 atoms

54.4% CPU use with 2 MPI tasks x 1 OpenMP threads

MPI task timing breakdown:
Section |  min time  |  avg time  |  max time  |%varavg| %total
---------------------------------------------------------------
Pair    | 0          | 0          | 0          |   0.0 |  0.00
Bond    | 0          | 0          | 0          |   0.0 |  0.00
Neigh   | 0          | 0          | 0          |   0.0 |  0.00
Comm    | 0          | 0          | 0          |   0.0 |  0.00
Output  | 0          | 0          | 0          |   0.0 |  0.00
Modify  | 0          | 0          | 0          |   0.0 |  0.00
Other   |            | 5.514e-06  |            |       |100.00

Nlocal:        30.5000 ave          31 max          30 min
Histogram: 1 0 0 0 0 0 0 0 0 1
Nghost:        1040.50 ave        1041 max        1040 min
Histogram: 1 0 0 0 0 0 0 0 0 1
Neighs:        6914.50 ave        7504 max        6325 min
Histogram: 1 0 0 0 0 0 0 0 0 1

Total # of neighbors = 13829
Ave neighs/atom = 226.70492
Ave special neighs/atom = 0.0000000
Neighbor list builds = 0
Dangerous builds = 0
WARNING: Ignoring 'compress yes' for molecular system (src/lammps/src/delete_atoms.cpp:126)
Deleted 1 atoms, new total = 60
Created 1 atoms
  create_atoms CPU = 0.000 seconds
1 atoms in group Ne
WARNING: No fixes defined, atoms won't move (src/lammps/src/verlet.cpp:55)
Neighbor list info ...
  update every 1 steps, delay 0 steps, check yes
  max neighbors/atom: 10000, page size: 100000
  master list distance cutoff = 22
  ghost atom cutoff = 22
  binsize = 11, bins = 5 5 1
  2 neighbor lists, perpetual/occasional/extra = 1 1 0
  (1) pair lj/cut, perpetual
      attributes: half, newton on
      pair build: half/bin/newton
      stencil: half/bin/3d
      bin: standard
  (2) compute group/group, occasional, copy from (1)
      attributes: half, newton on
      pair build: copy
      stencil: none
      bin: none
Setting up Verlet run ...
  Unit style    : real
  Current step  : 19
  Time step     : 1
Per MPI rank memory allocation (min/avg/max) = 6.039 | 6.039 | 6.039 Mbytes
Step Lz c_intEn 
      19        5.564    15.880743 
Loop time of 5.49227e-06 on 2 procs for 0 steps with 61 atoms

100.1% CPU use with 2 MPI tasks x 1 OpenMP threads

MPI task timing breakdown:
Section |  min time  |  avg time  |  max time  |%varavg| %total
---------------------------------------------------------------
Pair    | 0          | 0          | 0          |   0.0 |  0.00
Bond    | 0          | 0          | 0          |   0.0 |  0.00
Neigh   | 0          | 0          | 0          |   0.0 |  0.00
Comm    | 0          | 0          | 0          |   0.0 |  0.00
Output  | 0          | 0          | 0          |   0.0 |  0.00
Modify  | 0          | 0          | 0          |   0.0 |  0.00
Other   |            | 5.492e-06  |            |       |100.00

Nlocal:        30.5000 ave          31 max          30 min
Histogram: 1 0 0 0 0 0 0 0 0 1
Nghost:        1039.50 ave        1040 max        1039 min
Histogram: 1 0 0 0 0 0 0 0 0 1
Neighs:        6917.00 ave        7514 max        6320 min
Histogram: 1 0 0 0 0 0 0 0 0 1

Total # of neighbors = 13834
Ave neighs/atom = 226.78689
Ave special neighs/atom = 0.0000000
Neighbor list builds = 0
Dangerous builds = 0
WARNING: Ignoring 'compress yes' for molecular system (src/lammps/src/delete_atoms.cpp:126)
Deleted 1 atoms, new total = 60
Created 1 atoms
  create_atoms CPU = 0.000 seconds
1 atoms in group Ne
WARNING: No fixes defined, atoms won't move (src/lammps/src/verlet.cpp:55)
Neighbor list info ...
  update every 1 steps, delay 0 steps, check yes
  max neighbors/atom: 10000, page size: 100000
  master list distance cutoff = 22
  ghost atom cutoff = 22
  binsize = 11, bins = 5 5 1
  2 neighbor lists, perpetual/occasional/extra = 1 1 0
  (1) pair lj/cut, perpetual
      attributes: half, newton on
      pair build: half/bin/newton
      stencil: half/bin/3d
      bin: standard
  (2) compute group/group, occasional, copy from (1)
      attributes: half, newton on
      pair build: copy
      stencil: none
      bin: none
Setting up Verlet run ...
  Unit style    : real
  Current step  : 20
  Time step     : 1
Per MPI rank memory allocation (min/avg/max) = 6.039 | 6.039 | 6.039 Mbytes
Step Lz c_intEn 
      20        5.564    1374.6173 
Loop time of 5.01844e-06 on 2 procs for 0 steps with 61 atoms

119.6% CPU use with 2 MPI tasks x 1 OpenMP threads

MPI task timing breakdown:
Section |  min time  |  avg time  |  max time  |%varavg| %total
---------------------------------------------------------------
Pair    | 0          | 0          | 0          |   0.0 |  0.00
Bond    | 0          | 0          | 0          |   0.0 |  0.00
Neigh   | 0          | 0          | 0          |   0.0 |  0.00
Comm    | 0          | 0          | 0          |   0.0 |  0.00
Output  | 0          | 0          | 0          |   0.0 |  0.00
Modify  | 0          | 0          | 0          |   0.0 |  0.00
Other   |            | 5.018e-06  |            |       |100.00

Nlocal:        30.5000 ave          31 max          30 min
Histogram: 1 0 0 0 0 0 0 0 0 1
Nghost:        1039.50 ave        1040 max        1039 min
Histogram: 1 0 0 0 0 0 0 0 0 1
Neighs:        6916.00 ave        7512 max        6320 min
Histogram: 1 0 0 0 0 0 0 0 0 1

Total # of neighbors = 13832
Ave neighs/atom = 226.75410
Ave special neighs/atom = 0.0000000
Neighbor list builds = 0
Dangerous builds = 0
WARNING: Ignoring 'compress yes' for molecular system (src/lammps/src/delete_atoms.cpp:126)
Deleted 1 atoms, new total = 60
Created 1 atoms
  create_atoms CPU = 0.000 seconds
1 atoms in group Ne
WARNING: No fixes defined, atoms won't move (src/lammps/src/verlet.cpp:55)
Neighbor list info ...
  update every 1 steps, delay 0 steps, check yes
  max neighbors/atom: 10000, page size: 100000
  master list distance cutoff = 22
  ghost atom cutoff = 22
  binsize = 11, bins = 5 5 1
  2 neighbor lists, perpetual/occasional/extra = 1 1 0
  (1) pair lj/cut, perpetual
      attributes: half, newton on
      pair build: half/bin/newton
      stencil: half/bin/3d
      bin: standard
  (2) compute group/group, occasional, copy from (1)
      attributes: half, newton on
      pair build: copy
      stencil: none
      bin: none
Setting up Verlet run ...
  Unit style    : real
  Current step  : 21
  Time step     : 1
Per MPI rank memory allocation (min/avg/max) = 6.039 | 6.039 | 6.039 Mbytes
Step Lz c_intEn 
      21        5.564   -1.3315599 
Loop time of 4.62674e-06 on 2 procs for 0 steps with 61 atoms

97.3% CPU use with 2 MPI tasks x 1 OpenMP threads

MPI task timing breakdown:
Section |  min time  |  avg time  |  max time  |%varavg| %total
---------------------------------------------------------------
Pair    | 0          | 0          | 0          |   0.0 |  0.00
Bond    | 0          | 0          | 0          |   0.0 |  0.00
Neigh   | 0          | 0          | 0          |   0.0 |  0.00
Comm    | 0          | 0          | 0          |   0.0 |  0.00
Output  | 0          | 0          | 0          |   0.0 |  0.00
Modify  | 0          | 0          | 0          |   0.0 |  0.00
Other   |            | 4.627e-06  |            |       |100.00

Nlocal:        30.5000 ave          31 max          30 min
Histogram: 1 0 0 0 0 0 0 0 0 1
Nghost:        1040.50 ave        1041 max        1040 min
Histogram: 1 0 0 0 0 0 0 0 0 1
Neighs:        6919.00 ave        7275 max        6563 min
Histogram: 1 0 0 0 0 0 0 0 0 1

Total # of neighbors = 13838
Ave neighs/atom = 226.85246
Ave special neighs/atom = 0.0000000
Neighbor list builds = 0
Dangerous builds = 0
WARNING: Ignoring 'compress yes' for molecular system (src/lammps/src/delete_atoms.cpp:126)
Deleted 1 atoms, new total = 60
Created 1 atoms
  create_atoms CPU = 0.000 seconds
1 atoms in group Ne
WARNING: No fixes defined, atoms won't move (src/lammps/src/verlet.cpp:55)
Neighbor list info ...
  update every 1 steps, delay 0 steps, check yes
  max neighbors/atom: 10000, page size: 100000
  master list distance cutoff = 22
  ghost atom cutoff = 22
  binsize = 11, bins = 5 5 1
  2 neighbor lists, perpetual/occasional/extra = 1 1 0
  (1) pair lj/cut, perpetual
      attributes: half, newton on
      pair build: half/bin/newton
      stencil: half/bin/3d
      bin: standard
  (2) compute group/group, occasional, copy from (1)
      attributes: half, newton on
      pair build: copy
      stencil: none
      bin: none
Setting up Verlet run ...
  Unit style    : real
  Current step  : 22
  Time step     : 1
Per MPI rank memory allocation (min/avg/max) = 6.039 | 6.039 | 6.039 Mbytes
Step Lz c_intEn 
      22        5.564   -1.2972501 
Loop time of 4.77394e-06 on 2 procs for 0 steps with 61 atoms

62.8% CPU use with 2 MPI tasks x 1 OpenMP threads

MPI task timing breakdown:
Section |  min time  |  avg time  |  max time  |%varavg| %total
---------------------------------------------------------------
Pair    | 0          | 0          | 0          |   0.0 |  0.00
Bond    | 0          | 0          | 0          |   0.0 |  0.00
Neigh   | 0          | 0          | 0          |   0.0 |  0.00
Comm    | 0          | 0          | 0          |   0.0 |  0.00
Output  | 0          | 0          | 0          |   0.0 |  0.00
Modify  | 0          | 0          | 0          |   0.0 |  0.00
Other   |            | 4.774e-06  |            |       |100.00

Nlocal:        30.5000 ave          31 max          30 min
Histogram: 1 0 0 0 0 0 0 0 0 1
Nghost:        1039.50 ave        1040 max        1039 min
Histogram: 1 0 0 0 0 0 0 0 0 1
Neighs:        6916.00 ave        7512 max        6320 min
Histogram: 1 0 0 0 0 0 0 0 0 1

Total # of neighbors = 13832
Ave neighs/atom = 226.75410
Ave special neighs/atom = 0.0000000
Neighbor list builds = 0
Dangerous builds = 0
WARNING: Ignoring 'compress yes' for molecular system (src/lammps/src/delete_atoms.cpp:126)
Deleted 1 atoms, new total = 60
Created 1 atoms
  create_atoms CPU = 0.000 seconds
1 atoms in group Ne
WARNING: No fixes defined, atoms won't move (src/lammps/src/verlet.cpp:55)
Neighbor list info ...
  update every 1 steps, delay 0 steps, check yes
  max neighbors/atom: 10000, page size: 100000
  master list distance cutoff = 22
  ghost atom cutoff = 22
  binsize = 11, bins = 5 5 1
  2 neighbor lists, perpetual/occasional/extra = 1 1 0
  (1) pair lj/cut, perpetual
      attributes: half, newton on
      pair build: half/bin/newton
      stencil: half/bin/3d
      bin: standard
  (2) compute group/group, occasional, copy from (1)
      attributes: half, newton on
      pair build: copy
      stencil: none
      bin: none
Setting up Verlet run ...
  Unit style    : real
  Current step  : 23
  Time step     : 1
Per MPI rank memory allocation (min/avg/max) = 6.039 | 6.039 | 6.039 Mbytes
Step Lz c_intEn 
      23        5.564    220.08753 
Loop time of 5.2569e-06 on 2 procs for 0 steps with 61 atoms

114.1% CPU use with 2 MPI tasks x 1 OpenMP threads

MPI task timing breakdown:
Section |  min time  |  avg time  |  max time  |%varavg| %total
---------------------------------------------------------------
Pair    | 0          | 0          | 0          |   0.0 |  0.00
Bond    | 0          | 0          | 0          |   0.0 |  0.00
Neigh   | 0          | 0          | 0          |   0.0 |  0.00
Comm    | 0          | 0          | 0          |   0.0 |  0.00
Output  | 0          | 0          | 0          |   0.0 |  0.00
Modify  | 0          | 0          | 0          |   0.0 |  0.00
Other   |            | 5.257e-06  |            |       |100.00

Nlocal:        30.5000 ave          31 max          30 min
Histogram: 1 0 0 0 0 0 0 0 0 1
Nghost:        1040.50 ave        1041 max        1040 min
Histogram: 1 0 0 0 0 0 0 0 0 1
Neighs:        6914.50 ave        7261 max        6568 min
Histogram: 1 0 0 0 0 0 0 0 0 1

Total # of neighbors = 13829
Ave neighs/atom = 226.70492
Ave special neighs/atom = 0.0000000
Neighbor list builds = 0
Dangerous builds = 0
WARNING: Ignoring 'compress yes' for molecular system (src/lammps/src/delete_atoms.cpp:126)
Deleted 1 atoms, new total = 60
Created 1 atoms
  create_atoms CPU = 0.000 seconds
1 atoms in group Ne
WARNING: No fixes defined, atoms won't move (src/lammps/src/verlet.cpp:55)
Neighbor list info ...
  update every 1 steps, delay 0 steps, check yes
  max neighbors/atom: 10000, page size: 100000
  master list distance cutoff = 22
  ghost atom cutoff = 22
  binsize = 11, bins = 5 5 1
  2 neighbor lists, perpetual/occasional/extra = 1 1 0
  (1) pair lj/cut, perpetual
      attributes: half, newton on
      pair build: half/bin/newton
      stencil: half/bin/3d
      bin: standard
  (2) compute group/group, occasional, copy from (1)
      attributes: half, newton on
      pair build: copy
      stencil: none
      bin: none
Setting up Verlet run ...
  Unit style    : real
  Current step  : 24
  Time step     : 1
Per MPI rank memory allocation (min/avg/max) = 6.039 | 6.039 | 6.039 Mbytes
Step Lz c_intEn 
      24        5.564   -0.6171523 
Loop time of 4.99313e-06 on 2 procs for 0 steps with 61 atoms

100.1% CPU use with 2 MPI tasks x 1 OpenMP threads

MPI task timing breakdown:
Section |  min time  |  avg time  |  max time  |%varavg| %total
---------------------------------------------------------------
Pair    | 0          | 0          | 0          |   0.0 |  0.00
Bond    | 0          | 0          | 0          |   0.0 |  0.00
Neigh   | 0          | 0          | 0          |   0.0 |  0.00
Comm    | 0          | 0          | 0          |   0.0 |  0.00
Output  | 0          | 0          | 0          |   0.0 |  0.00
Modify  | 0          | 0          | 0          |   0.0 |  0.00
Other   |            | 4.993e-06  |            |       |100.00

Nlocal:        30.5000 ave          31 max          30 min
Histogram: 1 0 0 0 0 0 0 0 0 1
Nghost:        1040.50 ave        1041 max        1040 min
Histogram: 1 0 0 0 0 0 0 0 0 1
Neighs:        6913.50 ave        7489 max        6338 min
Histogram: 1 0 0 0 0 0 0 0 0 1

Total # of neighbors = 13827
Ave neighs/atom = 226.67213
Ave special neighs/atom = 0.0000000
Neighbor list builds = 0
Dangerous builds = 0
WARNING: Ignoring 'compress yes' for molecular system (src/lammps/src/delete_atoms.cpp:126)
Deleted 1 atoms, new total = 60
Created 1 atoms
  create_atoms CPU = 0.000 seconds
1 atoms in group Ne
WARNING: No fixes defined, atoms won't move (src/lammps/src/verlet.cpp:55)
Neighbor list info ...
  update every 1 steps, delay 0 steps, check yes
  max neighbors/atom: 10000, page size: 100000
  master list distance cutoff = 22
  ghost atom cutoff = 22
  binsize = 11, bins = 5 5 1
  2 neighbor lists, perpetual/occasional/extra = 1 1 0
  (1) pair lj/cut, perpetual
      attributes: half, newton on
      pair build: half/bin/newton
      stencil: half/bin/3d
      bin: standard
  (2) compute group/group, occasional, copy from (1)
      attributes: half, newton on
      pair build: copy
      stencil: none
      bin: none
Setting up Verlet run ...
  Unit style    : real
  Current step  : 25
  Time step     : 1
Per MPI rank memory allocation (min/avg/max) = 6.039 | 6.039 | 6.039 Mbytes
Step Lz c_intEn 
      25        5.564  -0.95257066 
Loop time of 4.76052e-06 on 2 procs for 0 steps with 61 atoms

84.0% CPU use with 2 MPI tasks x 1 OpenMP threads

MPI task timing breakdown:
Section |  min time  |  avg time  |  max time  |%varavg| %total
---------------------------------------------------------------
Pair    | 0          | 0          | 0          |   0.0 |  0.00
Bond    | 0          | 0          | 0          |   0.0 |  0.00
Neigh   | 0          | 0          | 0          |   0.0 |  0.00
Comm    | 0          | 0          | 0          |   0.0 |  0.00
Output  | 0          | 0          | 0          |   0.0 |  0.00
Modify  | 0          | 0          | 0          |   0.0 |  0.00
Other   |            | 4.761e-06  |            |       |100.00

Nlocal:        30.5000 ave          31 max          30 min
Histogram: 1 0 0 0 0 0 0 0 0 1
Nghost:        1040.50 ave        1041 max        1040 min
Histogram: 1 0 0 0 0 0 0 0 0 1
Neighs:        6913.50 ave        7269 max        6558 min
Histogram: 1 0 0 0 0 0 0 0 0 1

Total # of neighbors = 13827
Ave neighs/atom = 226.67213
Ave special neighs/atom = 0.0000000
Neighbor list builds = 0
Dangerous builds = 0
WARNING: Ignoring 'compress yes' for molecular system (src/lammps/src/delete_atoms.cpp:126)
Deleted 1 atoms, new total = 60
Created 1 atoms
  create_atoms CPU = 0.000 seconds
1 atoms in group Ne
WARNING: No fixes defined, atoms won't move (src/lammps/src/verlet.cpp:55)
Neighbor list info ...
  update every 1 steps, delay 0 steps, check yes
  max neighbors/atom: 10000, page size: 100000
  master list distance cutoff = 22
  ghost atom cutoff = 22
  binsize = 11, bins = 5 5 1
  2 neighbor lists, perpetual/occasional/extra = 1 1 0
  (1) pair lj/cut, perpetual
      attributes: half, newton on
      pair build: half/bin/newton
      stencil: half/bin/3d
      bin: standard
  (2) compute group/group, occasional, copy from (1)
      attributes: half, newton on
      pair build: copy
      stencil: none
      bin: none
Setting up Verlet run ...
  Unit style    : real
  Current step  : 26
  Time step     : 1
Per MPI rank memory allocation (min/avg/max) = 6.039 | 6.039 | 6.039 Mbytes
Step Lz c_intEn 
      26        5.564    6188.6861 
Loop time of 4.44871e-06 on 2 procs for 0 steps with 61 atoms

112.4% CPU use with 2 MPI tasks x 1 OpenMP threads

MPI task timing breakdown:
Section |  min time  |  avg time  |  max time  |%varavg| %total
---------------------------------------------------------------
Pair    | 0          | 0          | 0          |   0.0 |  0.00
Bond    | 0          | 0          | 0          |   0.0 |  0.00
Neigh   | 0          | 0          | 0          |   0.0 |  0.00
Comm    | 0          | 0          | 0          |   0.0 |  0.00
Output  | 0          | 0          | 0          |   0.0 |  0.00
Modify  | 0          | 0          | 0          |   0.0 |  0.00
Other   |            | 4.449e-06  |            |       |100.00

Nlocal:        30.5000 ave          31 max          30 min
Histogram: 1 0 0 0 0 0 0 0 0 1
Nghost:        1040.50 ave        1041 max        1040 min
Histogram: 1 0 0 0 0 0 0 0 0 1
Neighs:        6912.00 ave        7488 max        6336 min
Histogram: 1 0 0 0 0 0 0 0 0 1

Total # of neighbors = 13824
Ave neighs/atom = 226.62295
Ave special neighs/atom = 0.0000000
Neighbor list builds = 0
Dangerous builds = 0
WARNING: Ignoring 'compress yes' for molecular system (src/lammps/src/delete_atoms.cpp:126)
Deleted 1 atoms, new total = 60
Created 1 atoms
  create_atoms CPU = 0.000 seconds
1 atoms in group Ne
WARNING: No fixes defined, atoms won't move (src/lammps/src/verlet.cpp:55)
Neighbor list info ...
  update every 1 steps, delay 0 steps, check yes
  max neighbors/atom: 10000, page size: 100000
  master list distance cutoff = 22
  ghost atom cutoff = 22
  binsize = 11, bins = 5 5 1
  2 neighbor lists, perpetual/occasional/extra = 1 1 0
  (1) pair lj/cut, perpetual
      attributes: half, newton on
      pair build: half/bin/newton
      stencil: half/bin/3d
      bin: standard
  (2) compute group/group, occasional, copy from (1)
      attributes: half, newton on
      pair build: copy
      stencil: none
      bin: none
Setting up Verlet run ...
  Unit style    : real
  Current step  : 27
  Time step     : 1
Per MPI rank memory allocation (min/avg/max) = 6.039 | 6.039 | 6.039 Mbytes
Step Lz c_intEn 
      27        5.564     70.13815 
Loop time of 3.90893e-06 on 2 procs for 0 steps with 61 atoms

127.9% CPU use with 2 MPI tasks x 1 OpenMP threads

MPI task timing breakdown:
Section |  min time  |  avg time  |  max time  |%varavg| %total
---------------------------------------------------------------
Pair    | 0          | 0          | 0          |   0.0 |  0.00
Bond    | 0          | 0          | 0          |   0.0 |  0.00
Neigh   | 0          | 0          | 0          |   0.0 |  0.00
Comm    | 0          | 0          | 0          |   0.0 |  0.00
Output  | 0          | 0          | 0          |   0.0 |  0.00
Modify  | 0          | 0          | 0          |   0.0 |  0.00
Other   |            | 3.909e-06  |            |       |100.00

Nlocal:        30.5000 ave          31 max          30 min
Histogram: 1 0 0 0 0 0 0 0 0 1
Nghost:        1040.50 ave        1041 max        1040 min
Histogram: 1 0 0 0 0 0 0 0 0 1
Neighs:        6916.50 ave        7513 max        6320 min
Histogram: 1 0 0 0 0 0 0 0 0 1

Total # of neighbors = 13833
Ave neighs/atom = 226.77049
Ave special neighs/atom = 0.0000000
Neighbor list builds = 0
Dangerous builds = 0
WARNING: Ignoring 'compress yes' for molecular system (src/lammps/src/delete_atoms.cpp:126)
Deleted 1 atoms, new total = 60
Created 1 atoms
  create_atoms CPU = 0.000 seconds
1 atoms in group Ne
WARNING: No fixes defined, atoms won't move (src/lammps/src/verlet.cpp:55)
Neighbor list info ...
  update every 1 steps, delay 0 steps, check yes
  max neighbors/atom: 10000, page size: 100000
  master list distance cutoff = 22
  ghost atom cutoff = 22
  binsize = 11, bins = 5 5 1
  2 neighbor lists, perpetual/occasional/extra = 1 1 0
  (1) pair lj/cut, perpetual
      attributes: half, newton on
      pair build: half/bin/newton
      stencil: half/bin/3d
      bin: standard
  (2) compute group/group, occasional, copy from (1)
      attributes: half, newton on
      pair build: copy
      stencil: none
      bin: none
Setting up Verlet run ...
  Unit style    : real
  Current step  : 28
  Time step     : 1
Per MPI rank memory allocation (min/avg/max) = 6.039 | 6.039 | 6.039 Mbytes
Step Lz c_intEn 
      28        5.564    10.923486 
Loop time of 4.10246e-06 on 2 procs for 0 steps with 61 atoms

97.5% CPU use with 2 MPI tasks x 1 OpenMP threads

MPI task timing breakdown:
Section |  min time  |  avg time  |  max time  |%varavg| %total
---------------------------------------------------------------
Pair    | 0          | 0          | 0          |   0.0 |  0.00
Bond    | 0          | 0          | 0          |   0.0 |  0.00
Neigh   | 0          | 0          | 0          |   0.0 |  0.00
Comm    | 0          | 0          | 0          |   0.0 |  0.00
Output  | 0          | 0          | 0          |   0.0 |  0.00
Modify  | 0          | 0          | 0          |   0.0 |  0.00
Other   |            | 4.102e-06  |            |       |100.00

Nlocal:        30.5000 ave          31 max          30 min
Histogram: 1 0 0 0 0 0 0 0 0 1
Nghost:        1040.50 ave        1041 max        1040 min
Histogram: 1 0 0 0 0 0 0 0 0 1
Neighs:        6912.50 ave        7253 max        6572 min
Histogram: 1 0 0 0 0 0 0 0 0 1

Total # of neighbors = 13825
Ave neighs/atom = 226.63934
Ave special neighs/atom = 0.0000000
Neighbor list builds = 0
Dangerous builds = 0
WARNING: Ignoring 'compress yes' for molecular system (src/lammps/src/delete_atoms.cpp:126)
Deleted 1 atoms, new total = 60
Created 1 atoms
  create_atoms CPU = 0.000 seconds
1 atoms in group Ne
WARNING: No fixes defined, atoms won't move (src/lammps/src/verlet.cpp:55)
Neighbor list info ...
  update every 1 steps, delay 0 steps, check yes
  max neighbors/atom: 10000, page size: 100000
  master list distance cutoff = 22
  ghost atom cutoff = 22
  binsize = 11, bins = 5 5 1
  2 neighbor lists, perpetual/occasional/extra = 1 1 0
  (1) pair lj/cut, perpetual
      attributes: half, newton on
      pair build: half/bin/newton
      stencil: half/bin/3d
      bin: standard
  (2) compute group/group, occasional, copy from (1)
      attributes: half, newton on
      pair build: copy
      stencil: none
      bin: none
Setting up Verlet run ...
  Unit style    : real
  Current step  : 29
  Time step     : 1
Per MPI rank memory allocation (min/avg/max) = 6.039 | 6.039 | 6.039 Mbytes
Step Lz c_intEn 
      29        5.564   -1.3719567 
Loop time of 3.20921e-06 on 2 procs for 0 steps with 61 atoms

124.6% CPU use with 2 MPI tasks x 1 OpenMP threads

MPI task timing breakdown:
Section |  min time  |  avg time  |  max time  |%varavg| %total
---------------------------------------------------------------
Pair    | 0          | 0          | 0          |   0.0 |  0.00
Bond    | 0          | 0          | 0          |   0.0 |  0.00
Neigh   | 0          | 0          | 0          |   0.0 |  0.00
Comm    | 0          | 0          | 0          |   0.0 |  0.00
Output  | 0          | 0          | 0          |   0.0 |  0.00
Modify  | 0          | 0          | 0          |   0.0 |  0.00
Other   |            | 3.209e-06  |            |       |100.00

Nlocal:        30.5000 ave          31 max          30 min
Histogram: 1 0 0 0 0 0 0 0 0 1
Nghost:        1040.50 ave        1041 max        1040 min
Histogram: 1 0 0 0 0 0 0 0 0 1
Neighs:        6921.50 ave        7493 max        6350 min
Histogram: 1 0 0 0 0 0 0 0 0 1

Total # of neighbors = 13843
Ave neighs/atom = 226.93443
Ave special neighs/atom = 0.0000000
Neighbor list builds = 0
Dangerous builds = 0
WARNING: Ignoring 'compress yes' for molecular system (src/lammps/src/delete_atoms.cpp:126)
Deleted 1 atoms, new total = 60
Created 1 atoms
  create_atoms CPU = 0.000 seconds
1 atoms in group Ne
WARNING: No fixes defined, atoms won't move (src/lammps/src/verlet.cpp:55)
Neighbor list info ...
  update every 1 steps, delay 0 steps, check yes
  max neighbors/atom: 10000, page size: 100000
  master list distance cutoff = 22
  ghost atom cutoff = 22
  binsize = 11, bins = 5 5 1
  2 neighbor lists, perpetual/occasional/extra = 1 1 0
  (1) pair lj/cut, perpetual
      attributes: half, newton on
      pair build: half/bin/newton
      stencil: half/bin/3d
      bin: standard
  (2) compute group/group, occasional, copy from (1)
      attributes: half, newton on
      pair build: copy
      stencil: none
      bin: none
Setting up Verlet run ...
  Unit style    : real
  Current step  : 30
  Time step     : 1
Per MPI rank memory allocation (min/avg/max) = 6.039 | 6.039 | 6.039 Mbytes
Step Lz c_intEn 
      30        5.564   -1.1172184 
Loop time of 2.78823e-06 on 2 procs for 0 steps with 61 atoms

107.6% CPU use with 2 MPI tasks x 1 OpenMP threads

MPI task timing breakdown:
Section |  min time  |  avg time  |  max time  |%varavg| %total
---------------------------------------------------------------
Pair    | 0          | 0          | 0          |   0.0 |  0.00
Bond    | 0          | 0          | 0          |   0.0 |  0.00
Neigh   | 0          | 0          | 0          |   0.0 |  0.00
Comm    | 0          | 0          | 0          |   0.0 |  0.00
Output  | 0          | 0          | 0          |   0.0 |  0.00
Modify  | 0          | 0          | 0          |   0.0 |  0.00
Other   |            | 2.788e-06  |            |       |100.00

Nlocal:        30.5000 ave          31 max          30 min
Histogram: 1 0 0 0 0 0 0 0 0 1
Nghost:        1039.50 ave        1040 max        1039 min
Histogram: 1 0 0 0 0 0 0 0 0 1
Neighs:        6920.00 ave        7490 max        6350 min
Histogram: 1 0 0 0 0 0 0 0 0 1

Total # of neighbors = 13840
Ave neighs/atom = 226.88525
Ave special neighs/atom = 0.0000000
Neighbor list builds = 0
Dangerous builds = 0
WARNING: Ignoring 'compress yes' for molecular system (src/lammps/src/delete_atoms.cpp:126)
Deleted 1 atoms, new total = 60
Created 1 atoms
  create_atoms CPU = 0.000 seconds
1 atoms in group Ne
WARNING: No fixes defined, atoms won't move (src/lammps/src/verlet.cpp:55)
Neighbor list info ...
  update every 1 steps, delay 0 steps, check yes
  max neighbors/atom: 10000, page size: 100000
  master list distance cutoff = 22
  ghost atom cutoff = 22
  binsize = 11, bins = 5 5 1
  2 neighbor lists, perpetual/occasional/extra = 1 1 0
  (1) pair lj/cut, perpetual
      attributes: half, newton on
      pair build: half/bin/newton
      stencil: half/bin/3d
      bin: standard
  (2) compute group/group, occasional, copy from (1)
      attributes: half, newton on
      pair build: copy
      stencil: none
      bin: none
Setting up Verlet run ...
  Unit style    : real
  Current step  : 31
  Time step     : 1
Per MPI rank memory allocation (min/avg/max) = 6.039 | 6.039 | 6.039 Mbytes
Step Lz c_intEn 
      31        5.564    936.30264 
Loop time of 2.62053e-06 on 2 procs for 0 steps with 61 atoms

114.5% CPU use with 2 MPI tasks x 1 OpenMP threads

MPI task timing breakdown:
Section |  min time  |  avg time  |  max time  |%varavg| %total
---------------------------------------------------------------
Pair    | 0          | 0          | 0          |   0.0 |  0.00
Bond    | 0          | 0          | 0          |   0.0 |  0.00
Neigh   | 0          | 0          | 0          |   0.0 |  0.00
Comm    | 0          | 0          | 0          |   0.0 |  0.00
Output  | 0          | 0          | 0          |   0.0 |  0.00
Modify  | 0          | 0          | 0          |   0.0 |  0.00
Other   |            | 2.621e-06  |            |       |100.00

Nlocal:        30.5000 ave          31 max          30 min
Histogram: 1 0 0 0 0 0 0 0 0 1
Nghost:        1040.50 ave        1041 max        1040 min
Histogram: 1 0 0 0 0 0 0 0 0 1
Neighs:        6914.00 ave        7504 max        6324 min
Histogram: 1 0 0 0 0 0 0 0 0 1

Total # of neighbors = 13828
Ave neighs/atom = 226.68852
Ave special neighs/atom = 0.0000000
Neighbor list builds = 0
Dangerous builds = 0
WARNING: Ignoring 'compress yes' for molecular system (src/lammps/src/delete_atoms.cpp:126)
Deleted 1 atoms, new total = 60
Created 1 atoms
  create_atoms CPU = 0.000 seconds
1 atoms in group Ne
WARNING: No fixes defined, atoms won't move (src/lammps/src/verlet.cpp:55)
Neighbor list info ...
  update every 1 steps, delay 0 steps, check yes
  max neighbors/atom: 10000, page size: 100000
  master list distance cutoff = 22
  ghost atom cutoff = 22
  binsize = 11, bins = 5 5 1
  2 neighbor lists, perpetual/occasional/extra = 1 1 0
  (1) pair lj/cut, perpetual
      attributes: half, newton on
      pair build: half/bin/newton
      stencil: half/bin/3d
      bin: standard
  (2) compute group/group, occasional, copy from (1)
      attributes: half, newton on
      pair build: copy
      stencil: none
      bin: none
Setting up Verlet run ...
  Unit style    : real
  Current step  : 32
  Time step     : 1
Per MPI rank memory allocation (min/avg/max) = 6.039 | 6.039 | 6.039 Mbytes
Step Lz c_intEn 
      32        5.564    1314.4948 
Loop time of 2.70903e-06 on 2 procs for 0 steps with 61 atoms

129.2% CPU use with 2 MPI tasks x 1 OpenMP threads

MPI task timing breakdown:
Section |  min time  |  avg time  |  max time  |%varavg| %total
---------------------------------------------------------------
Pair    | 0          | 0          | 0          |   0.0 |  0.00
Bond    | 0          | 0          | 0          |   0.0 |  0.00
Neigh   | 0          | 0          | 0          |   0.0 |  0.00
Comm    | 0          | 0          | 0          |   0.0 |  0.00
Output  | 0          | 0          | 0          |   0.0 |  0.00
Modify  | 0          | 0          | 0          |   0.0 |  0.00
Other   |            | 2.709e-06  |            |       |100.00

Nlocal:        30.5000 ave          31 max          30 min
Histogram: 1 0 0 0 0 0 0 0 0 1
Nghost:        1040.50 ave        1041 max        1040 min
Histogram: 1 0 0 0 0 0 0 0 0 1
Neighs:        6912.50 ave        7503 max        6322 min
Histogram: 1 0 0 0 0 0 0 0 0 1

Total # of neighbors = 13825
Ave neighs/atom = 226.63934
Ave special neighs/atom = 0.0000000
Neighbor list builds = 0
Dangerous builds = 0
WARNING: Ignoring 'compress yes' for molecular system (src/lammps/src/delete_atoms.cpp:126)
Deleted 1 atoms, new total = 60
Created 1 atoms
  create_atoms CPU = 0.000 seconds
1 atoms in group Ne
WARNING: No fixes defined, atoms won't move (src/lammps/src/verlet.cpp:55)
Neighbor list info ...
  update every 1 steps, delay 0 steps, check yes
  max neighbors/atom: 10000, page size: 100000
  master list distance cutoff = 22
  ghost atom cutoff = 22
  binsize = 11, bins = 5 5 1
  2 neighbor lists, perpetual/occasional/extra = 1 1 0
  (1) pair lj/cut, perpetual
      attributes: half, newton on
      pair build: half/bin/newton
      stencil: half/bin/3d
      bin: standard
  (2) compute group/group, occasional, copy from (1)
      attributes: half, newton on
      pair build: copy
      stencil: none
      bin: none
Setting up Verlet run ...
  Unit style    : real
  Current step  : 33
  Time step     : 1
Per MPI rank memory allocation (min/avg/max) = 6.039 | 6.039 | 6.039 Mbytes
Step Lz c_intEn 
      33        5.564   -1.0661541 
Loop time of 2.59143e-06 on 2 procs for 0 steps with 61 atoms

115.8% CPU use with 2 MPI tasks x 1 OpenMP threads

MPI task timing breakdown:
Section |  min time  |  avg time  |  max time  |%varavg| %total
---------------------------------------------------------------
Pair    | 0          | 0          | 0          |   0.0 |  0.00
Bond    | 0          | 0          | 0          |   0.0 |  0.00
Neigh   | 0          | 0          | 0          |   0.0 |  0.00
Comm    | 0          | 0          | 0          |   0.0 |  0.00
Output  | 0          | 0          | 0          |   0.0 |  0.00
Modify  | 0          | 0          | 0          |   0.0 |  0.00
Other   |            | 2.591e-06  |            |       |100.00

Nlocal:        30.5000 ave          31 max          30 min
Histogram: 1 0 0 0 0 0 0 0 0 1
Nghost:        1040.50 ave        1041 max        1040 min
Histogram: 1 0 0 0 0 0 0 0 0 1
Neighs:        6920.50 ave        7491 max        6350 min
Histogram: 1 0 0 0 0 0 0 0 0 1

Total # of neighbors = 13841
Ave neighs/atom = 226.90164
Ave special neighs/atom = 0.0000000
Neighbor list builds = 0
Dangerous builds = 0
WARNING: Ignoring 'compress yes' for molecular system (src/lammps/src/delete_atoms.cpp:126)
Deleted 1 atoms, new total = 60
Created 1 atoms
  create_atoms CPU = 0.000 seconds
1 atoms in group Ne
WARNING: No fixes defined, atoms won't move (src/lammps/src/verlet.cpp:55)
Neighbor list info ...
  update every 1 steps, delay 0 steps, check yes
  max neighbors/atom: 10000, page size: 100000
  master list distance cutoff = 22
  ghost atom cutoff = 22
  binsize = 11, bins = 5 5 1
  2 neighbor lists, perpetual/occasional/extra = 1 1 0
  (1) pair lj/cut, perpetual
      attributes: half, newton on
      pair build: half/bin/newton
      stencil: half/bin/3d
      bin: standard
  (2) compute group/group, occasional, copy from (1)
      attributes: half, newton on
      pair build: copy
      stencil: none
      bin: none
Setting up Verlet run ...
  Unit style    : real
  Current step  : 34
  Time step     : 1
Per MPI rank memory allocation (min/avg/max) = 6.039 | 6.039 | 6.039 Mbytes
Step Lz c_intEn 
      34        5.564    2776.8574 
Loop time of 2.66133e-06 on 2 procs for 0 steps with 61 atoms

112.7% CPU use with 2 MPI tasks x 1 OpenMP threads

MPI task timing breakdown:
Section |  min time  |  avg time  |  max time  |%varavg| %total
---------------------------------------------------------------
Pair    | 0          | 0          | 0          |   0.0 |  0.00
Bond    | 0          | 0          | 0          |   0.0 |  0.00
Neigh   | 0          | 0          | 0          |   0.0 |  0.00
Comm    | 0          | 0          | 0          |   0.0 |  0.00
Output  | 0          | 0          | 0          |   0.0 |  0.00
Modify  | 0          | 0          | 0          |   0.0 |  0.00
Other   |            | 2.661e-06  |            |       |100.00

Nlocal:        30.5000 ave          31 max          30 min
Histogram: 1 0 0 0 0 0 0 0 0 1
Nghost:        1045.00 ave        1050 max        1040 min
Histogram: 1 0 0 0 0 0 0 0 0 1
Neighs:        6915.00 ave        7503 max        6327 min
Histogram: 1 0 0 0 0 0 0 0 0 1

Total # of neighbors = 13830
Ave neighs/atom = 226.72131
Ave special neighs/atom = 0.0000000
Neighbor list builds = 0
Dangerous builds = 0
WARNING: Ignoring 'compress yes' for molecular system (src/lammps/src/delete_atoms.cpp:126)
Deleted 1 atoms, new total = 60
Created 1 atoms
  create_atoms CPU = 0.000 seconds
1 atoms in group Ne
WARNING: No fixes defined, atoms won't move (src/lammps/src/verlet.cpp:55)
Neighbor list info ...
  update every 1 steps, delay 0 steps, check yes
  max neighbors/atom: 10000, page size: 100000
  master list distance cutoff = 22
  ghost atom cutoff = 22
  binsize = 11, bins = 5 5 1
  2 neighbor lists, perpetual/occasional/extra = 1 1 0
  (1) pair lj/cut, perpetual
      attributes: half, newton on
      pair build: half/bin/newton
      stencil: half/bin/3d
      bin: standard
  (2) compute group/group, occasional, copy from (1)
      attributes: half, newton on
      pair build: copy
      stencil: none
      bin: none
Setting up Verlet run ...
  Unit style    : real
  Current step  : 35
  Time step     : 1
Per MPI rank memory allocation (min/avg/max) = 6.039 | 6.039 | 6.039 Mbytes
Step Lz c_intEn 
      35        5.564  -0.56743489 
Loop time of 3.13069e-06 on 2 procs for 0 steps with 61 atoms

127.8% CPU use with 2 MPI tasks x 1 OpenMP threads

MPI task timing breakdown:
Section |  min time  |  avg time  |  max time  |%varavg| %total
---------------------------------------------------------------
Pair    | 0          | 0          | 0          |   0.0 |  0.00
Bond    | 0          | 0          | 0          |   0.0 |  0.00
Neigh   | 0          | 0          | 0          |   0.0 |  0.00
Comm    | 0          | 0          | 0          |   0.0 |  0.00
Output  | 0          | 0          | 0          |   0.0 |  0.00
Modify  | 0          | 0          | 0          |   0.0 |  0.00
Other   |            | 3.131e-06  |            |       |100.00

Nlocal:        30.5000 ave          31 max          30 min
Histogram: 1 0 0 0 0 0 0 0 0 1
Nghost:        1040.50 ave        1041 max        1040 min
Histogram: 1 0 0 0 0 0 0 0 0 1
Neighs:        6918.00 ave        7265 max        6571 min
Histogram: 1 0 0 0 0 0 0 0 0 1

Total # of neighbors = 13836
Ave neighs/atom = 226.81967
Ave special neighs/atom = 0.0000000
Neighbor list builds = 0
Dangerous builds = 0
WARNING: Ignoring 'compress yes' for molecular system (src/lammps/src/delete_atoms.cpp:126)
Deleted 1 atoms, new total = 60
Created 1 atoms
  create_atoms CPU = 0.000 seconds
1 atoms in group Ne
WARNING: No fixes defined, atoms won't move (src/lammps/src/verlet.cpp:55)
Neighbor list info ...
  update every 1 steps, delay 0 steps, check yes
  max neighbors/atom: 10000, page size: 100000
  master list distance cutoff = 22
  ghost atom cutoff = 22
  binsize = 11, bins = 5 5 1
  2 neighbor lists, perpetual/occasional/extra = 1 1 0
  (1) pair lj/cut, perpetual
      attributes: half, newton on
      pair build: half/bin/newton
      stencil: half/bin/3d
      bin: standard
  (2) compute group/group, occasional, copy from (1)
      attributes: half, newton on
      pair build: copy
      stencil: none
      bin: none
Setting up Verlet run ...
  Unit style    : real
  Current step  : 36
  Time step     : 1
Per MPI rank memory allocation (min/avg/max) = 6.039 | 6.039 | 6.039 Mbytes
Step Lz c_intEn 
      36        5.564    800.35352 
Loop time of 2.12707e-06 on 2 procs for 0 steps with 61 atoms

117.5% CPU use with 2 MPI tasks x 1 OpenMP threads

MPI task timing breakdown:
Section |  min time  |  avg time  |  max time  |%varavg| %total
---------------------------------------------------------------
Pair    | 0          | 0          | 0          |   0.0 |  0.00
Bond    | 0          | 0          | 0          |   0.0 |  0.00
Neigh   | 0          | 0          | 0          |   0.0 |  0.00
Comm    | 0          | 0          | 0          |   0.0 |  0.00
Output  | 0          | 0          | 0          |   0.0 |  0.00
Modify  | 0          | 0          | 0          |   0.0 |  0.00
Other   |            | 2.127e-06  |            |       |100.00

Nlocal:        30.5000 ave          31 max          30 min
Histogram: 1 0 0 0 0 0 0 0 0 1
Nghost:        1040.50 ave        1041 max        1040 min
Histogram: 1 0 0 0 0 0 0 0 0 1
Neighs:        6912.00 ave        7502 max        6322 min
Histogram: 1 0 0 0 0 0 0 0 0 1

Total # of neighbors = 13824
Ave neighs/atom = 226.62295
Ave special neighs/atom = 0.0000000
Neighbor list builds = 0
Dangerous builds = 0
WARNING: Ignoring 'compress yes' for molecular system (src/lammps/src/delete_atoms.cpp:126)
Deleted 1 atoms, new total = 60
Created 1 atoms
  create_atoms CPU = 0.000 seconds
1 atoms in group Ne
WARNING: No fixes defined, atoms won't move (src/lammps/src/verlet.cpp:55)
Neighbor list info ...
  update every 1 steps, delay 0 steps, check yes
  max neighbors/atom: 10000, page size: 100000
  master list distance cutoff = 22
  ghost atom cutoff = 22
  binsize = 11, bins = 5 5 1
  2 neighbor lists, perpetual/occasional/extra = 1 1 0
  (1) pair lj/cut, perpetual
      attributes: half, newton on
      pair build: half/bin/newton
      stencil: half/bin/3d
      bin: standard
  (2) compute group/group, occasional, copy from (1)
      attributes: half, newton on
      pair build: copy
      stencil: none
      bin: none
Setting up Verlet run ...
  Unit style    : real
  Current step  : 37
  Time step     : 1
Per MPI rank memory allocation (min/avg/max) = 6.039 | 6.039 | 6.039 Mbytes
Step Lz c_intEn 
      37        5.564    165.76713 
Loop time of 2.31458e-06 on 2 procs for 0 steps with 61 atoms

108.0% CPU use with 2 MPI tasks x 1 OpenMP threads

MPI task timing breakdown:
Section |  min time  |  avg time  |  max time  |%varavg| %total
---------------------------------------------------------------
Pair    | 0          | 0          | 0          |   0.0 |  0.00
Bond    | 0          | 0          | 0          |   0.0 |  0.00
Neigh   | 0          | 0          | 0          |   0.0 |  0.00
[...]
Comm    | 0          | 0          | 0          |   0.0 |  0.00
Output  | 0          | 0          | 0          |   0.0 |  0.00
Modify  | 0          | 0          | 0          |   0.0 |  0.00
Other   |            | 1.536e-06  |            |       |100.00

Nlocal:        30.5000 ave          31 max          30 min
Histogram: 1 0 0 0 0 0 0 0 0 1
Nghost:        1040.50 ave        1041 max        1040 min
Histogram: 1 0 0 0 0 0 0 0 0 1
Neighs:        6911.50 ave        7501 max        6322 min
Histogram: 1 0 0 0 0 0 0 0 0 1

Total # of neighbors = 13823
Ave neighs/atom = 226.60656
Ave special neighs/atom = 0.0000000
Neighbor list builds = 0
Dangerous builds = 0
Deleted 1 atoms, new total = 60
Created 1 atoms
  create_atoms CPU = 0.000 seconds
1 atoms in group Ne
Neighbor list info ...
  update every 1 steps, delay 0 steps, check yes
  max neighbors/atom: 10000, page size: 100000
  master list distance cutoff = 22
  ghost atom cutoff = 22
  binsize = 11, bins = 5 5 1
  2 neighbor lists, perpetual/occasional/extra = 1 1 0
  (1) pair lj/cut, perpetual
      attributes: half, newton on
      pair build: half/bin/newton
      stencil: half/bin/3d
      bin: standard
  (2) compute group/group, occasional, copy from (1)
      attributes: half, newton on
      pair build: copy
      stencil: none
      bin: none
Setting up Verlet run ...
  Unit style    : real
  Current step  : 992
  Time step     : 1
Per MPI rank memory allocation (min/avg/max) = 6.039 | 6.039 | 6.039 Mbytes
Step Lz c_intEn 
WARNING: Too many warnings: 1983 vs 100. All future warnings will be suppressed (src/lammps/src/thermo.cpp:423)
     992        5.564    141.75834 
Loop time of 1.47332e-06 on 2 procs for 0 steps with 61 atoms

101.8% CPU use with 2 MPI tasks x 1 OpenMP threads

MPI task timing breakdown:
Section |  min time  |  avg time  |  max time  |%varavg| %total
---------------------------------------------------------------
Pair    | 0          | 0          | 0          |   0.0 |  0.00
Bond    | 0          | 0          | 0          |   0.0 |  0.00
Neigh   | 0          | 0          | 0          |   0.0 |  0.00
Comm    | 0          | 0          | 0          |   0.0 |  0.00
Output  | 0          | 0          | 0          |   0.0 |  0.00
Modify  | 0          | 0          | 0          |   0.0 |  0.00
Other   |            | 1.473e-06  |            |       |100.00

Nlocal:        30.5000 ave          31 max          30 min
Histogram: 1 0 0 0 0 0 0 0 0 1
Nghost:        1049.50 ave        1050 max        1049 min
Histogram: 1 0 0 0 0 0 0 0 0 1
Neighs:        6916.00 ave        7502 max        6330 min
Histogram: 1 0 0 0 0 0 0 0 0 1

Total # of neighbors = 13832
Ave neighs/atom = 226.75410
Ave special neighs/atom = 0.0000000
Neighbor list builds = 0
Dangerous builds = 0
Deleted 1 atoms, new total = 60
Created 1 atoms
  create_atoms CPU = 0.000 seconds
1 atoms in group Ne
Neighbor list info ...
  update every 1 steps, delay 0 steps, check yes
  max neighbors/atom: 10000, page size: 100000
  master list distance cutoff = 22
  ghost atom cutoff = 22
  binsize = 11, bins = 5 5 1
  2 neighbor lists, perpetual/occasional/extra = 1 1 0
  (1) pair lj/cut, perpetual
      attributes: half, newton on
      pair build: half/bin/newton
      stencil: half/bin/3d
      bin: standard
  (2) compute group/group, occasional, copy from (1)
      attributes: half, newton on
      pair build: copy
      stencil: none
      bin: none
Setting up Verlet run ...
  Unit style    : real
  Current step  : 993
  Time step     : 1
Per MPI rank memory allocation (min/avg/max) = 6.039 | 6.039 | 6.039 Mbytes
Step Lz c_intEn 
WARNING: Too many warnings: 1985 vs 100. All future warnings will be suppressed (src/lammps/src/thermo.cpp:423)
     993        5.564    1.9342885 
Loop time of 1.43871e-06 on 2 procs for 0 steps with 61 atoms

139.0% CPU use with 2 MPI tasks x 1 OpenMP threads

MPI task timing breakdown:
Section |  min time  |  avg time  |  max time  |%varavg| %total
---------------------------------------------------------------
Pair    | 0          | 0          | 0          |   0.0 |  0.00
Bond    | 0          | 0          | 0          |   0.0 |  0.00
Neigh   | 0          | 0          | 0          |   0.0 |  0.00
Comm    | 0          | 0          | 0          |   0.0 |  0.00
Output  | 0          | 0          | 0          |   0.0 |  0.00
Modify  | 0          | 0          | 0          |   0.0 |  0.00
Other   |            | 1.439e-06  |            |       |100.00

Nlocal:        30.5000 ave          31 max          30 min
Histogram: 1 0 0 0 0 0 0 0 0 1
Nghost:        1039.50 ave        1040 max        1039 min
Histogram: 1 0 0 0 0 0 0 0 0 1
Neighs:        6918.00 ave        7486 max        6350 min
Histogram: 1 0 0 0 0 0 0 0 0 1

Total # of neighbors = 13836
Ave neighs/atom = 226.81967
Ave special neighs/atom = 0.0000000
Neighbor list builds = 0
Dangerous builds = 0
Deleted 1 atoms, new total = 60
Created 1 atoms
  create_atoms CPU = 0.000 seconds
1 atoms in group Ne
Neighbor list info ...
  update every 1 steps, delay 0 steps, check yes
  max neighbors/atom: 10000, page size: 100000
  master list distance cutoff = 22
  ghost atom cutoff = 22
  binsize = 11, bins = 5 5 1
  2 neighbor lists, perpetual/occasional/extra = 1 1 0
  (1) pair lj/cut, perpetual
      attributes: half, newton on
      pair build: half/bin/newton
      stencil: half/bin/3d
      bin: standard
  (2) compute group/group, occasional, copy from (1)
      attributes: half, newton on
      pair build: copy
      stencil: none
      bin: none
Setting up Verlet run ...
  Unit style    : real
  Current step  : 994
  Time step     : 1
Per MPI rank memory allocation (min/avg/max) = 6.039 | 6.039 | 6.039 Mbytes
Step Lz c_intEn 
WARNING: Too many warnings: 1987 vs 100. All future warnings will be suppressed (src/lammps/src/thermo.cpp:423)
     994        5.564     17.87607 
Loop time of 1.255e-06 on 2 procs for 0 steps with 61 atoms

119.5% CPU use with 2 MPI tasks x 1 OpenMP threads

MPI task timing breakdown:
Section |  min time  |  avg time  |  max time  |%varavg| %total
---------------------------------------------------------------
Pair    | 0          | 0          | 0          |   0.0 |  0.00
Bond    | 0          | 0          | 0          |   0.0 |  0.00
Neigh   | 0          | 0          | 0          |   0.0 |  0.00
Comm    | 0          | 0          | 0          |   0.0 |  0.00
Output  | 0          | 0          | 0          |   0.0 |  0.00
Modify  | 0          | 0          | 0          |   0.0 |  0.00
Other   |            | 1.255e-06  |            |       |100.00

Nlocal:        30.5000 ave          31 max          30 min
Histogram: 1 0 0 0 0 0 0 0 0 1
Nghost:        1039.50 ave        1040 max        1039 min
Histogram: 1 0 0 0 0 0 0 0 0 1
Neighs:        6917.00 ave        7484 max        6350 min
Histogram: 1 0 0 0 0 0 0 0 0 1

Total # of neighbors = 13834
Ave neighs/atom = 226.78689
Ave special neighs/atom = 0.0000000
Neighbor list builds = 0
Dangerous builds = 0
Deleted 1 atoms, new total = 60
Created 1 atoms
  create_atoms CPU = 0.000 seconds
1 atoms in group Ne
Neighbor list info ...
  update every 1 steps, delay 0 steps, check yes
  max neighbors/atom: 10000, page size: 100000
  master list distance cutoff = 22
  ghost atom cutoff = 22
  binsize = 11, bins = 5 5 1
  2 neighbor lists, perpetual/occasional/extra = 1 1 0
  (1) pair lj/cut, perpetual
      attributes: half, newton on
      pair build: half/bin/newton
      stencil: half/bin/3d
      bin: standard
  (2) compute group/group, occasional, copy from (1)
      attributes: half, newton on
      pair build: copy
      stencil: none
      bin: none
Setting up Verlet run ...
  Unit style    : real
  Current step  : 995
  Time step     : 1
Per MPI rank memory allocation (min/avg/max) = 6.039 | 6.039 | 6.039 Mbytes
Step Lz c_intEn 
WARNING: Too many warnings: 1989 vs 100. All future warnings will be suppressed (src/lammps/src/thermo.cpp:423)
     995        5.564    103835.25 
Loop time of 1.49071e-06 on 2 procs for 0 steps with 61 atoms

134.2% CPU use with 2 MPI tasks x 1 OpenMP threads

MPI task timing breakdown:
Section |  min time  |  avg time  |  max time  |%varavg| %total
---------------------------------------------------------------
Pair    | 0          | 0          | 0          |   0.0 |  0.00
Bond    | 0          | 0          | 0          |   0.0 |  0.00
Neigh   | 0          | 0          | 0          |   0.0 |  0.00
Comm    | 0          | 0          | 0          |   0.0 |  0.00
Output  | 0          | 0          | 0          |   0.0 |  0.00
Modify  | 0          | 0          | 0          |   0.0 |  0.00
Other   |            | 1.491e-06  |            |       |100.00

Nlocal:        30.5000 ave          31 max          30 min
Histogram: 1 0 0 0 0 0 0 0 0 1
Nghost:        1049.50 ave        1050 max        1049 min
Histogram: 1 0 0 0 0 0 0 0 0 1
Neighs:        6911.50 ave        7502 max        6321 min
Histogram: 1 0 0 0 0 0 0 0 0 1

Total # of neighbors = 13823
Ave neighs/atom = 226.60656
Ave special neighs/atom = 0.0000000
Neighbor list builds = 0
Dangerous builds = 0
Deleted 1 atoms, new total = 60
Created 1 atoms
  create_atoms CPU = 0.000 seconds
1 atoms in group Ne
Neighbor list info ...
  update every 1 steps, delay 0 steps, check yes
  max neighbors/atom: 10000, page size: 100000
  master list distance cutoff = 22
  ghost atom cutoff = 22
  binsize = 11, bins = 5 5 1
  2 neighbor lists, perpetual/occasional/extra = 1 1 0
  (1) pair lj/cut, perpetual
      attributes: half, newton on
      pair build: half/bin/newton
      stencil: half/bin/3d
      bin: standard
  (2) compute group/group, occasional, copy from (1)
      attributes: half, newton on
      pair build: copy
      stencil: none
      bin: none
Setting up Verlet run ...
  Unit style    : real
  Current step  : 996
  Time step     : 1
Per MPI rank memory allocation (min/avg/max) = 6.039 | 6.039 | 6.039 Mbytes
Step Lz c_intEn 
WARNING: Too many warnings: 1991 vs 100. All future warnings will be suppressed (src/lammps/src/thermo.cpp:423)
     996        5.564    4.6741546 
Loop time of 1.51344e-06 on 2 procs for 0 steps with 61 atoms

99.1% CPU use with 2 MPI tasks x 1 OpenMP threads

MPI task timing breakdown:
Section |  min time  |  avg time  |  max time  |%varavg| %total
---------------------------------------------------------------
Pair    | 0          | 0          | 0          |   0.0 |  0.00
Bond    | 0          | 0          | 0          |   0.0 |  0.00
Neigh   | 0          | 0          | 0          |   0.0 |  0.00
Comm    | 0          | 0          | 0          |   0.0 |  0.00
Output  | 0          | 0          | 0          |   0.0 |  0.00
Modify  | 0          | 0          | 0          |   0.0 |  0.00
Other   |            | 1.513e-06  |            |       |100.00

Nlocal:        30.5000 ave          31 max          30 min
Histogram: 1 0 0 0 0 0 0 0 0 1
Nghost:        1040.50 ave        1041 max        1040 min
Histogram: 1 0 0 0 0 0 0 0 0 1
Neighs:        6919.00 ave        7505 max        6333 min
Histogram: 1 0 0 0 0 0 0 0 0 1

Total # of neighbors = 13838
Ave neighs/atom = 226.85246
Ave special neighs/atom = 0.0000000
Neighbor list builds = 0
Dangerous builds = 0
Deleted 1 atoms, new total = 60
Created 1 atoms
  create_atoms CPU = 0.000 seconds
1 atoms in group Ne
Neighbor list info ...
  update every 1 steps, delay 0 steps, check yes
  max neighbors/atom: 10000, page size: 100000
  master list distance cutoff = 22
  ghost atom cutoff = 22
  binsize = 11, bins = 5 5 1
  2 neighbor lists, perpetual/occasional/extra = 1 1 0
  (1) pair lj/cut, perpetual
      attributes: half, newton on
      pair build: half/bin/newton
      stencil: half/bin/3d
      bin: standard
  (2) compute group/group, occasional, copy from (1)
      attributes: half, newton on
      pair build: copy
      stencil: none
      bin: none
Setting up Verlet run ...
  Unit style    : real
  Current step  : 997
  Time step     : 1
Per MPI rank memory allocation (min/avg/max) = 6.039 | 6.039 | 6.039 Mbytes
Step Lz c_intEn 
WARNING: Too many warnings: 1993 vs 100. All future warnings will be suppressed (src/lammps/src/thermo.cpp:423)
     997        5.564   -1.3500856 
Loop time of 1.71609e-06 on 2 procs for 0 steps with 61 atoms

116.5% CPU use with 2 MPI tasks x 1 OpenMP threads

MPI task timing breakdown:
Section |  min time  |  avg time  |  max time  |%varavg| %total
---------------------------------------------------------------
Pair    | 0          | 0          | 0          |   0.0 |  0.00
Bond    | 0          | 0          | 0          |   0.0 |  0.00
Neigh   | 0          | 0          | 0          |   0.0 |  0.00
Comm    | 0          | 0          | 0          |   0.0 |  0.00
Output  | 0          | 0          | 0          |   0.0 |  0.00
Modify  | 0          | 0          | 0          |   0.0 |  0.00
Other   |            | 1.716e-06  |            |       |100.00

Nlocal:        30.5000 ave          31 max          30 min
Histogram: 1 0 0 0 0 0 0 0 0 1
Nghost:        1040.50 ave        1041 max        1040 min
Histogram: 1 0 0 0 0 0 0 0 0 1
Neighs:        6920.00 ave        7277 max        6563 min
Histogram: 1 0 0 0 0 0 0 0 0 1

Total # of neighbors = 13840
Ave neighs/atom = 226.88525
Ave special neighs/atom = 0.0000000
Neighbor list builds = 0
Dangerous builds = 0
Deleted 1 atoms, new total = 60
Created 1 atoms
  create_atoms CPU = 0.000 seconds
1 atoms in group Ne
Neighbor list info ...
  update every 1 steps, delay 0 steps, check yes
  max neighbors/atom: 10000, page size: 100000
  master list distance cutoff = 22
  ghost atom cutoff = 22
  binsize = 11, bins = 5 5 1
  2 neighbor lists, perpetual/occasional/extra = 1 1 0
  (1) pair lj/cut, perpetual
      attributes: half, newton on
      pair build: half/bin/newton
      stencil: half/bin/3d
      bin: standard
  (2) compute group/group, occasional, copy from (1)
      attributes: half, newton on
      pair build: copy
      stencil: none
      bin: none
Setting up Verlet run ...
  Unit style    : real
  Current step  : 998
  Time step     : 1
Per MPI rank memory allocation (min/avg/max) = 6.039 | 6.039 | 6.039 Mbytes
Step Lz c_intEn 
WARNING: Too many warnings: 1995 vs 100. All future warnings will be suppressed (src/lammps/src/thermo.cpp:423)
     998        5.564    320.36153 
Loop time of 1.29942e-06 on 2 procs for 0 steps with 61 atoms

153.9% CPU use with 2 MPI tasks x 1 OpenMP threads

MPI task timing breakdown:
Section |  min time  |  avg time  |  max time  |%varavg| %total
---------------------------------------------------------------
Pair    | 0          | 0          | 0          |   0.0 |  0.00
Bond    | 0          | 0          | 0          |   0.0 |  0.00
Neigh   | 0          | 0          | 0          |   0.0 |  0.00
Comm    | 0          | 0          | 0          |   0.0 |  0.00
Output  | 0          | 0          | 0          |   0.0 |  0.00
Modify  | 0          | 0          | 0          |   0.0 |  0.00
Other   |            | 1.299e-06  |            |       |100.00

Nlocal:        30.5000 ave          31 max          30 min
Histogram: 1 0 0 0 0 0 0 0 0 1
Nghost:        1040.50 ave        1041 max        1040 min
Histogram: 1 0 0 0 0 0 0 0 0 1
Neighs:        6916.50 ave        7265 max        6568 min
Histogram: 1 0 0 0 0 0 0 0 0 1

Total # of neighbors = 13833
Ave neighs/atom = 226.77049
Ave special neighs/atom = 0.0000000
Neighbor list builds = 0
Dangerous builds = 0
Deleted 1 atoms, new total = 60
Created 1 atoms
  create_atoms CPU = 0.000 seconds
1 atoms in group Ne
Neighbor list info ...
  update every 1 steps, delay 0 steps, check yes
  max neighbors/atom: 10000, page size: 100000
  master list distance cutoff = 22
  ghost atom cutoff = 22
  binsize = 11, bins = 5 5 1
  2 neighbor lists, perpetual/occasional/extra = 1 1 0
  (1) pair lj/cut, perpetual
      attributes: half, newton on
      pair build: half/bin/newton
      stencil: half/bin/3d
      bin: standard
  (2) compute group/group, occasional, copy from (1)
      attributes: half, newton on
      pair build: copy
      stencil: none
      bin: none
Setting up Verlet run ...
  Unit style    : real
  Current step  : 999
  Time step     : 1
Per MPI rank memory allocation (min/avg/max) = 6.039 | 6.039 | 6.039 Mbytes
Step Lz c_intEn 
WARNING: Too many warnings: 1997 vs 100. All future warnings will be suppressed (src/lammps/src/thermo.cpp:423)
     999        5.564   -1.3730622 
Loop time of 1.02273e-06 on 2 procs for 0 steps with 61 atoms

97.8% CPU use with 2 MPI tasks x 1 OpenMP threads

MPI task timing breakdown:
Section |  min time  |  avg time  |  max time  |%varavg| %total
---------------------------------------------------------------
Pair    | 0          | 0          | 0          |   0.0 |  0.00
Bond    | 0          | 0          | 0          |   0.0 |  0.00
Neigh   | 0          | 0          | 0          |   0.0 |  0.00
Comm    | 0          | 0          | 0          |   0.0 |  0.00
Output  | 0          | 0          | 0          |   0.0 |  0.00
Modify  | 0          | 0          | 0          |   0.0 |  0.00
Other   |            | 1.023e-06  |            |       |100.00

Nlocal:        30.5000 ave          31 max          30 min
Histogram: 1 0 0 0 0 0 0 0 0 1
Nghost:        1040.50 ave        1041 max        1040 min
Histogram: 1 0 0 0 0 0 0 0 0 1
Neighs:        6921.50 ave        7508 max        6335 min
Histogram: 1 0 0 0 0 0 0 0 0 1

Total # of neighbors = 13843
Ave neighs/atom = 226.93443
Ave special neighs/atom = 0.0000000
Neighbor list builds = 0
Dangerous builds = 0
Deleted 1 atoms, new total = 60
Created 1 atoms
  create_atoms CPU = 0.000 seconds
1 atoms in group Ne
Neighbor list info ...
  update every 1 steps, delay 0 steps, check yes
  max neighbors/atom: 10000, page size: 100000
  master list distance cutoff = 22
  ghost atom cutoff = 22
  binsize = 11, bins = 5 5 1
  2 neighbor lists, perpetual/occasional/extra = 1 1 0
  (1) pair lj/cut, perpetual
      attributes: half, newton on
      pair build: half/bin/newton
      stencil: half/bin/3d
      bin: standard
  (2) compute group/group, occasional, copy from (1)
      attributes: half, newton on
      pair build: copy
      stencil: none
      bin: none
Setting up Verlet run ...
  Unit style    : real
  Current step  : 1000
  Time step     : 1
Per MPI rank memory allocation (min/avg/max) = 6.039 | 6.039 | 6.039 Mbytes
Step Lz c_intEn 
WARNING: Too many warnings: 1999 vs 100. All future warnings will be suppressed (src/lammps/src/thermo.cpp:423)
    1000        5.564    50.540538 
Loop time of 1.17115e-06 on 2 procs for 0 steps with 61 atoms

42.7% CPU use with 2 MPI tasks x 1 OpenMP threads

MPI task timing breakdown:
Section |  min time  |  avg time  |  max time  |%varavg| %total
---------------------------------------------------------------
Pair    | 0          | 0          | 0          |   0.0 |  0.00
Bond    | 0          | 0          | 0          |   0.0 |  0.00
Neigh   | 0          | 0          | 0          |   0.0 |  0.00
Comm    | 0          | 0          | 0          |   0.0 |  0.00
Output  | 0          | 0          | 0          |   0.0 |  0.00
Modify  | 0          | 0          | 0          |   0.0 |  0.00
Other   |            | 1.171e-06  |            |       |100.00

Nlocal:        30.5000 ave          31 max          30 min
Histogram: 1 0 0 0 0 0 0 0 0 1
Nghost:        1040.50 ave        1041 max        1040 min
Histogram: 1 0 0 0 0 0 0 0 0 1
Neighs:        6917.00 ave        7485 max        6349 min
Histogram: 1 0 0 0 0 0 0 0 0 1

Total # of neighbors = 13834
Ave neighs/atom = 226.78689
Ave special neighs/atom = 0.0000000
Neighbor list builds = 0
Dangerous builds = 0
Deleted 1 atoms, new total = 60

------ Accessible volume info ------

Number points inside = 291
Number points outside = 709
Cylinder radius = 3.6
Cylinder length = 5.564

Cylinder volume (A^3) = 226.538486958474

Acessible volume (A^3) = 92.9798303313342

------------------------------------

Total wall time: 0:00:00
